#+++++++++++++++++++++++++++++++++++++++++++++++++++++++++++++++++++++++++++++++++++++++++++++++++++++++++++++++++++++++++++++++++
#
#   IPW-3 Cut/Slice DATA SUBMITTAL FORM for Test Case NACA0012_AE3933, May 18th 2026
#
#       NOMENCLATURE:
#                  X [m]:  X-coordinate of the surface (clean for reference)
#                  Y [m]:  Y-coordinate of the surface (clean for reference)
#                  Z [m]:  Z-coordinate of the surface (clean for reference)
#                 Cp [-]:  Pressure coefficient
#            HTC [W/m2K]:  Convective Heat Transfer Coefficient (on the rough surface)
#               Beta [-]:  Collection efficiency
#                 Ts [K]:  Surface temperature
#                 FF [-]:  Freezing fraction
#                  k [m]:  Surface roughness height if variable (OPTIONAL)
#         RhoIce [kg/m3]:  Ice density (OPTIONAL)
#      HTC_CLEAN [W/m2K]:  Convective Heat Transfer Coefficient on the surface without roughness (OPTIONAL)
#
#                XXmm:  Roughness height used for the case, in mm.
#                       In the zone name, use the format KS_XXmm.
#                       For example, if k_s = 1.5 mm, use KS_1p5mm. 
#                       For Variable roughness, use KS_VAR
#
#    FLOW CONDITIONS:
#                                   AOA: 4.0 deg
#                           Mach Number: 0.3127 [-]
#       Mean aerodynamic chord (M.A.C.): 0.5334 [m]
#                       Reynolds Number: 3.8947 million (based on MAC)
#                       Freestream Temp: 270.95 [K]
#                        Reference area: 0.97548 [m2]
#               Moment Reference Center: 0.13335, 0, 0 [m] (X, Y, Z)
#
#    ICING CONDITIONS:
#                           Icing Time: 420 [s]
#                                  LWC: 0.55 [g/m3]
#                                  MVD: 20 [μm]
#
#              NOTES: 1. Please use at least 5 decimal places in the numerical values
#                     2. If data are NOT provided, please fill data fields with a numerical value of "-999" 
#
#++++++++++++++++++++++++++++++++++++++++++++++++++++++++++++++++++++++++++++++++++++++++++++++++++++++++++++++++++++

                                                    <- Optional ->                 
VARIABLES = "X" "Y" "Z" "Cp" "HTC" "Beta" "Ts" "FF" "k" "RhoIce" "HTC_CLEAN"

ZONE T="SLICE_Y_0p9144_BINS01_KS_0p5mm_CUTDATA"
0.532472385 0.914399982 -0.027235629 0.092551331 216.561264038 0.000000000 270.681762695 -1.000000000 -999 200.000000000 142.308883667
0.532119563 0.914399982 -0.027160750 0.093345649 255.244903564 0.000000000 270.682464600 -1.000000000 -999 200.000000000 185.239349365
0.531555021 0.914399982 -0.027041075 0.092249132 253.469009399 0.000000000 270.682281494 -1.000000000 -999 200.000000000 183.573608398
0.530651734 0.914399982 -0.026849681 0.090748888 249.778121948 0.000000000 270.681793213 -1.000000000 -999 200.000000000 179.846832275
0.529206359 0.914399982 -0.026544002 0.087998042 249.226593018 0.000000000 270.680694580 -1.000000000 -999 200.000000000 179.625213623
0.526893432 0.914399982 -0.026056461 0.083295445 252.166915894 0.000000000 270.679473877 -1.000000000 -999 200.000000000 182.972671509
0.523192069 0.914399982 -0.025279632 0.077505888 255.631027222 0.000000000 270.677825928 -1.000000000 -999 200.000000000 185.833435059
0.519484633 0.914399982 -0.024506102 0.070462146 259.507263184 0.000000000 270.675506592 -1.000000000 -999 200.000000000 188.505111694
0.515776306 0.914399982 -0.023736857 0.063352708 263.294128418 0.000000000 270.673583984 -1.000000000 -999 200.000000000 190.579147339
0.512067129 0.914399982 -0.022971724 0.056111880 267.160675049 0.000000000 270.671417236 -1.000000000 -999 200.000000000 192.506729126
0.508357092 0.914399982 -0.022210766 0.048861495 270.983978271 0.000000000 270.668853760 -1.000000000 -999 200.000000000 194.295928955
0.504646226 0.914399982 -0.021453866 0.041556166 274.786468506 0.000000000 270.666259766 -1.000000000 -999 200.000000000 195.868713379
0.500934571 0.914399982 -0.020700839 0.034241281 278.572204590 0.000000000 270.663726807 -1.000000000 -999 200.000000000 197.273513794
0.497222086 0.914399982 -0.019951918 0.026908478 282.309936523 0.000000000 270.661315918 -1.000000000 -999 200.000000000 198.535568237
0.493508822 0.914399982 -0.019206869 0.019578065 286.019134521 0.000000000 270.659240723 -1.000000000 -999 200.000000000 199.708557129
0.489794768 0.914399982 -0.018465772 0.012250041 289.682861328 0.000000000 270.656799316 -1.000000000 -999 200.000000000 200.771743774
0.486079958 0.914399982 -0.017728466 0.004935156 293.301269531 0.000000000 270.654327393 -1.000000000 -999 200.000000000 201.735168457
0.482364399 0.914399982 -0.016994949 -0.002363007 296.893157959 0.000000000 270.652130127 -1.000000000 -999 200.000000000 202.672973633
0.478648093 0.914399982 -0.016265225 -0.009638475 300.436676025 0.000000000 270.649475098 -1.000000000 -999 200.000000000 203.563903809
0.474931059 0.914399982 -0.015539216 -0.016884081 303.918823242 0.000000000 270.647033691 -1.000000000 -999 200.000000000 204.374481201
0.471213304 0.914399982 -0.014816910 -0.024101021 307.332946777 0.000000000 270.644409180 -1.000000000 -999 200.000000000 205.142211914
0.467494845 0.914399982 -0.014098240 -0.031282126 310.711395264 0.000000000 270.641571045 -1.000000000 -999 200.000000000 205.911804199
0.463775693 0.914399982 -0.013383162 -0.038422620 314.044891357 0.000000000 270.639221191 -1.000000000 -999 200.000000000 206.601425171
0.460055828 0.914399982 -0.012671804 -0.045521307 317.283905029 0.000000000 270.637237549 -1.000000000 -999 200.000000000 207.243621826
0.456335296 0.914399982 -0.011963939 -0.052573411 320.453308105 0.000000000 270.634918213 -1.000000000 -999 200.000000000 207.881317139
0.452614082 0.914399982 -0.011259669 -0.059575347 323.561889648 0.000000000 270.632781982 -1.000000000 -999 200.000000000 208.403350830
0.448892203 0.914399982 -0.010558926 -0.066531894 326.586273193 0.000000000 270.630584717 -1.000000000 -999 200.000000000 208.840942383
0.445169662 0.914399982 -0.009861706 -0.073439467 329.539062500 0.000000000 270.628173828 -1.000000000 -999 200.000000000 209.312057495
0.441446478 0.914399982 -0.009167925 -0.080301652 332.408233643 0.000000000 270.625854492 -1.000000000 -999 200.000000000 209.909912109
0.437722624 0.914399982 -0.008477755 -0.087122030 335.142852783 0.000000000 270.623321533 -1.000000000 -999 200.000000000 210.562789917
0.433998141 0.914399982 -0.007790983 -0.093899407 337.810455322 0.000000000 270.620758057 -1.000000000 -999 200.000000000 211.145553589
0.430273029 0.914399982 -0.007107632 -0.100636172 340.451354980 0.000000000 270.618103027 -1.000000000 -999 200.000000000 211.746307373
0.426547260 0.914399982 -0.006427871 -0.107335910 342.981475830 0.000000000 270.616180420 -1.000000000 -999 200.000000000 212.407638550
0.422820871 0.914399982 -0.005751519 -0.114001008 345.404663086 0.000000000 270.614166260 -1.000000000 -999 200.000000000 213.036758423
0.419093864 0.914399982 -0.005078583 -0.120636244 347.753692627 0.000000000 270.612182617 -1.000000000 -999 200.000000000 213.645812988
0.415366238 0.914399982 -0.004409081 -0.127241619 350.033294678 0.000000000 270.610321045 -1.000000000 -999 200.000000000 214.274765015
0.411637987 0.914399982 -0.003743065 -0.133815937 352.245513916 0.000000000 270.608062744 -1.000000000 -999 200.000000000 214.909790039
0.407909112 0.914399982 -0.003080559 -0.140362784 354.381378174 0.000000000 270.606292725 -1.000000000 -999 200.000000000 215.549102783
0.404179624 0.914399982 -0.002421506 -0.146882157 356.465881348 0.000000000 270.604949951 -1.000000000 -999 200.000000000 216.214416504
0.400449525 0.914399982 -0.001765927 -0.153378836 358.530548096 0.000000000 270.603240967 -1.000000000 -999 200.000000000 216.893707275
0.396718815 0.914399982 -0.001113830 -0.159857598 360.573486328 0.000000000 270.601196289 -1.000000000 -999 200.000000000 217.541458130
0.392987493 0.914399982 -0.000465242 -0.166320831 362.610504150 0.000000000 270.599639893 -1.000000000 -999 200.000000000 218.181808472
0.389255562 0.914399982 0.000179830 -0.172766148 364.667022705 0.000000000 270.597991943 -1.000000000 -999 200.000000000 218.850708008
0.385523020 0.914399982 0.000821357 -0.179194743 366.733917236 0.000000000 270.595733643 -1.000000000 -999 200.000000000 219.539840698
0.381789867 0.914399982 0.001459320 -0.185605420 368.816223145 0.000000000 270.593536377 -1.000000000 -999 200.000000000 220.212936401
0.378056101 0.914399982 0.002093684 -0.192004153 370.923156738 0.000000000 270.591644287 -1.000000000 -999 200.000000000 220.840347290
0.374321723 0.914399982 0.002724435 -0.198396914 373.037322998 0.000000000 270.589721680 -1.000000000 -999 200.000000000 221.450317383
0.370586730 0.914399982 0.003351539 -0.204784896 375.158477783 0.000000000 270.587829590 -1.000000000 -999 200.000000000 222.096801758
0.366851121 0.914399982 0.003974959 -0.211169296 377.301391602 0.000000000 270.586029053 -1.000000000 -999 200.000000000 222.759796143
0.363114894 0.914399982 0.004594665 -0.217558473 379.457366943 0.000000000 270.584167480 -1.000000000 -999 200.000000000 223.392379761
0.359378048 0.914399982 0.005210628 -0.223953622 381.644531250 0.000000000 270.582153320 -1.000000000 -999 200.000000000 223.981216431
0.355640587 0.914399982 0.005822846 -0.230354744 383.884094238 0.000000000 270.579895020 -1.000000000 -999 200.000000000 224.559646606
0.351902489 0.914399982 0.006431163 -0.236765422 386.147766113 0.000000000 270.577819824 -1.000000000 -999 200.000000000 225.170944214
0.348163760 0.914399982 0.007035593 -0.243186849 388.437408447 0.000000000 270.575683594 -1.000000000 -999 200.000000000 225.762039185
0.344424391 0.914399982 0.007636049 -0.249622610 390.771179199 0.000000000 270.573425293 -1.000000000 -999 200.000000000 226.310363770
0.340684386 0.914399982 0.008232527 -0.256078677 393.150787354 0.000000000 270.571044922 -1.000000000 -999 200.000000000 226.840576172
0.336943739 0.914399982 0.008824974 -0.262555050 395.575805664 0.000000000 270.568664551 -1.000000000 -999 200.000000000 227.369445801
0.333202446 0.914399982 0.009413320 -0.269055312 398.042999268 0.000000000 270.566497803 -1.000000000 -999 200.000000000 227.904067993
0.329460493 0.914399982 0.009997456 -0.275574686 400.540985107 0.000000000 270.563690186 -1.000000000 -999 200.000000000 228.411331177
0.325717886 0.914399982 0.010577387 -0.282116754 403.062835693 0.000000000 270.560974121 -1.000000000 -999 200.000000000 228.917434692
0.321974618 0.914399982 0.011153041 -0.288675545 405.600891113 0.000000000 270.558441162 -1.000000000 -999 200.000000000 229.416717529
0.318230671 0.914399982 0.011724259 -0.295257031 408.117584229 0.000000000 270.555847168 -1.000000000 -999 200.000000000 229.860412598
0.314486052 0.914399982 0.012291054 -0.301864794 410.631988525 0.000000000 270.552978516 -1.000000000 -999 200.000000000 230.351257324
0.310740757 0.914399982 0.012853365 -0.308496447 413.165802002 0.000000000 270.550140381 -1.000000000 -999 200.000000000 230.929794312
0.306994762 0.914399982 0.013410993 -0.315165128 415.653411865 0.000000000 270.547760010 -1.000000000 -999 200.000000000 231.475875854
0.303248076 0.914399982 0.013963957 -0.321868449 418.112854004 0.000000000 270.544952393 -1.000000000 -999 200.000000000 232.011444092
0.299500692 0.914399982 0.014512173 -0.328607604 420.572235107 0.000000000 270.542175293 -1.000000000 -999 200.000000000 232.580749512
0.295752588 0.914399982 0.015055445 -0.335389759 422.979339600 0.000000000 270.539276123 -1.000000000 -999 200.000000000 233.166427612
0.292003774 0.914399982 0.015593796 -0.342217304 425.350128174 0.000000000 270.536651611 -1.000000000 -999 200.000000000 233.782867432
0.288254233 0.914399982 0.016127060 -0.349095016 427.671386719 0.000000000 270.534088135 -1.000000000 -999 200.000000000 234.396545410
0.284503956 0.914399982 0.016655119 -0.356030062 429.926879883 0.000000000 270.531463623 -1.000000000 -999 200.000000000 235.036880493
0.280752947 0.914399982 0.017177960 -0.363023637 432.147491455 0.000000000 270.529266357 -1.000000000 -999 200.000000000 235.705093384
0.277001180 0.914399982 0.017695331 -0.370082907 434.291381836 0.000000000 270.527160645 -1.000000000 -999 200.000000000 236.413482666
0.273248661 0.914399982 0.018207220 -0.377207873 436.379150391 0.000000000 270.524688721 -1.000000000 -999 200.000000000 237.195648193
0.269495381 0.914399982 0.018713493 -0.384398534 438.441497803 0.000000000 270.521942139 -1.000000000 -999 200.000000000 237.954742432
0.265741321 0.914399982 0.019213955 -0.391664446 440.452209473 0.000000000 270.519165039 -1.000000000 -999 200.000000000 238.735916138
0.261986490 0.914399982 0.019708598 -0.398991276 442.470611572 0.000000000 270.516998291 -1.000000000 -999 200.000000000 239.558074951
0.258230862 0.914399982 0.020197157 -0.406383801 444.540710449 0.000000000 270.515167236 -1.000000000 -999 200.000000000 240.371109009
0.254474440 0.914399982 0.020679565 -0.413846800 446.705535889 0.000000000 270.513336182 -1.000000000 -999 200.000000000 241.190856934
0.250717219 0.914399982 0.021155721 -0.421361160 448.989135742 0.000000000 270.511413574 -1.000000000 -999 200.000000000 241.977020264
0.246959175 0.914399982 0.021625330 -0.428938827 451.356597900 0.000000000 270.509368896 -1.000000000 -999 200.000000000 242.769180298
0.243200319 0.914399982 0.022088395 -0.436584578 453.853088379 0.000000000 270.507568359 -1.000000000 -999 200.000000000 243.525955200
0.239440634 0.914399982 0.022544674 -0.444304386 456.474609375 0.000000000 270.505706787 -1.000000000 -999 200.000000000 244.238571167
0.235680108 0.914399982 0.022993975 -0.452105417 459.212646484 0.000000000 270.503662109 -1.000000000 -999 200.000000000 244.967483521
0.231918748 0.914399982 0.023436243 -0.459984089 462.119049072 0.000000000 270.501251221 -1.000000000 -999 200.000000000 245.627395630
0.228156532 0.914399982 0.023871167 -0.467945178 465.144134521 0.000000000 270.498687744 -1.000000000 -999 200.000000000 246.275619507
0.224393459 0.914399982 0.024298612 -0.475989879 468.305236816 0.000000000 270.496276855 -1.000000000 -999 200.000000000 246.935226440
0.220629531 0.914399982 0.024718457 -0.484116999 471.659027100 0.000000000 270.493377686 -1.000000000 -999 200.000000000 247.542388916
0.216864727 0.914399982 0.025130380 -0.492325341 475.109039307 0.000000000 270.490234375 -1.000000000 -999 200.000000000 248.274932861
0.213099050 0.914399982 0.025534240 -0.500591018 478.584655762 0.000000000 270.487365723 -1.000000000 -999 200.000000000 249.175781250
0.209332499 0.914399982 0.025929870 -0.508909251 482.098480225 0.000000000 270.484436035 -1.000000000 -999 200.000000000 250.040710449
0.205565064 0.914399982 0.026316985 -0.517306319 485.601501465 0.000000000 270.480957031 -1.000000000 -999 200.000000000 250.914093018
0.201796736 0.914399982 0.026695316 -0.525800138 489.040649414 0.000000000 270.477050781 -1.000000000 -999 200.000000000 251.868347168
0.198027524 0.914399982 0.027064732 -0.534396681 492.442565918 0.000000000 270.473144531 -1.000000000 -999 200.000000000 252.791000366
0.194257424 0.914399982 0.027424969 -0.543092365 495.819244385 0.000000000 270.469116211 -1.000000000 -999 200.000000000 253.731613159
0.190486427 0.914399982 0.027775705 -0.551890772 499.115203857 0.000000000 270.465332031 -1.000000000 -999 200.000000000 254.759979248
0.186714533 0.914399982 0.028116650 -0.560811014 502.284759521 0.000000000 270.461669922 -1.000000000 -999 200.000000000 255.783172607
0.182941752 0.914399982 0.028447633 -0.569868619 505.347015381 0.000000000 270.457946777 -1.000000000 -999 200.000000000 256.783630371
0.179168083 0.914399982 0.028768331 -0.579075532 508.317443848 0.000000000 270.454803467 -1.000000000 -999 200.000000000 257.866851807
0.175393529 0.914399982 0.029078443 -0.588434142 511.223968506 0.000000000 270.451843262 -1.000000000 -999 200.000000000 259.031494141
0.171618096 0.914399982 0.029377657 -0.597945642 514.120727539 0.000000000 270.449066162 -1.000000000 -999 200.000000000 260.023254395
0.167841785 0.914399982 0.029665594 -0.607594506 517.071472168 0.000000000 270.446380615 -1.000000000 -999 200.000000000 260.585876465
0.164064609 0.914399982 0.029941941 -0.617373567 520.216552734 0.000000000 270.443878174 -1.000000000 -999 200.000000000 260.992950439
0.160286578 0.914399982 0.030206346 -0.627268490 523.658020020 0.000000000 270.441497803 -1.000000000 -999 200.000000000 261.615661621
0.156507706 0.914399982 0.030458439 -0.637268525 527.406860352 0.000000000 270.438507080 -1.000000000 -999 200.000000000 262.310760498
0.152728010 0.914399982 0.030697871 -0.647408313 531.477478027 0.000000000 270.435241699 -1.000000000 -999 200.000000000 262.939514160
0.148947508 0.914399982 0.030924206 -0.657704576 535.871459961 0.000000000 270.432556152 -1.000000000 -999 200.000000000 263.591308594
0.145166219 0.914399982 0.031137000 -0.668153729 540.592102051 0.000000000 270.429718018 -1.000000000 -999 200.000000000 264.349121094
0.141384168 0.914399982 0.031335801 -0.678771302 545.649169922 0.000000000 270.425537109 -1.000000000 -999 200.000000000 265.222473145
0.137601383 0.914399982 0.031520101 -0.689546543 551.029541016 0.000000000 270.420928955 -1.000000000 -999 200.000000000 266.212219238
0.133817899 0.914399982 0.031689423 -0.700467509 556.617980957 0.000000000 270.415924072 -1.000000000 -999 200.000000000 267.403991699
0.130033753 0.914399982 0.031843269 -0.711400420 561.965393066 0.000000000 270.411071777 -1.000000000 -999 200.000000000 268.805328369
0.126364999 0.914399982 0.031977094 -0.722242551 566.706604004 0.000000000 270.406066895 -1.000000000 -999 200.000000000 270.197937012
0.122870449 0.914399982 0.032090052 -0.732829068 570.720397949 0.000000000 270.400787354 -1.000000000 -999 200.000000000 271.394683838
0.119541894 0.914399982 0.032183983 -0.743090691 574.149047852 0.000000000 270.395965576 -1.000000000 -999 200.000000000 272.370574951
0.116371507 0.914399982 0.032260717 -0.753077587 577.105407715 0.000000000 270.391723633 -1.000000000 -999 200.000000000 273.277557373
0.113351822 0.914399982 0.032321682 -0.762832758 579.668884277 0.000000000 270.388885498 -1.000000000 -999 200.000000000 274.134277344
0.110475730 0.914399982 0.032368724 -0.772314398 582.024169922 0.000000000 270.385986328 -1.000000000 -999 200.000000000 274.894744873
0.107736441 0.914399982 0.032402833 -0.781532061 584.160278320 0.000000000 270.382965088 -1.000000000 -999 200.000000000 275.811798096
0.105127491 0.914399982 0.032425580 -0.790492914 586.142211914 0.000000000 270.380737305 -1.000000000 -999 200.000000000 276.846832275
0.102642715 0.914399982 0.032438082 -0.799182625 587.829833984 0.000000000 270.378692627 -1.000000000 -999 200.000000000 277.778747559
0.100276233 0.914399982 0.032441453 -0.807609555 589.003051758 0.000000000 270.376983643 -1.000000000 -999 200.000000000 279.188110352
0.098022443 0.914399982 0.032436766 -0.815782064 590.037048340 0.000000000 270.375396729 -1.000000000 -999 200.000000000 281.511169434
0.095876006 0.914399982 0.032424778 -0.823663124 591.289611816 0.000000000 270.373474121 -1.000000000 -999 200.000000000 283.567382812
0.093831830 0.914399982 0.032406427 -0.831531045 592.742797852 0.000000000 270.371185303 -1.000000000 -999 200.000000000 284.413818359
0.091885063 0.914399982 0.032382615 -0.838934320 595.180175781 0.000000000 270.368927002 -1.000000000 -999 200.000000000 283.854125977
0.090031083 0.914399982 0.032353903 -0.846182316 600.322204590 0.000000000 270.367340088 -1.000000000 -999 200.000000000 281.881134033
0.088111566 0.914399982 0.032317840 -0.853971402 606.093933105 0.000000000 270.365966797 -1.000000000 -999 200.000000000 280.384246826
0.086192184 0.914399982 0.032275210 -0.861956381 609.329895020 0.000000000 270.364013672 -1.000000000 -999 200.000000000 280.390075684
0.084272967 0.914399982 0.032225744 -0.869922248 610.931945801 0.000000000 270.361145020 -1.000000000 -999 200.000000000 280.945343018
0.082353935 0.914399982 0.032169516 -0.878092368 612.785522461 0.000000000 270.358428955 -1.000000000 -999 200.000000000 281.553802490
0.080435128 0.914399982 0.032106073 -0.886352072 614.733154297 0.000000000 270.356628418 -1.000000000 -999 200.000000000 282.219451904
0.078516578 0.914399982 0.032035293 -0.894769446 616.679809570 0.000000000 270.354583740 -1.000000000 -999 200.000000000 282.885314941
0.076598321 0.914399982 0.031956966 -0.903301488 618.743469238 0.000000000 270.352539062 -1.000000000 -999 200.000000000 283.564117432
0.074680398 0.914399982 0.031870848 -0.911997171 620.937072754 0.000000000 270.350555420 -1.000000000 -999 200.000000000 284.196105957
0.072762850 0.914399982 0.031776756 -0.920842162 623.355957031 0.000000000 270.348541260 -1.000000000 -999 200.000000000 284.738952637
0.070845722 0.914399982 0.031674462 -0.929844822 626.043212891 0.000000000 270.346160889 -1.000000000 -999 200.000000000 285.205993652
0.068929071 0.914399982 0.031563590 -0.939012318 628.963500977 0.000000000 270.343872070 -1.000000000 -999 200.000000000 285.556762695
0.067012947 0.914399982 0.031443943 -0.948335094 632.144104004 0.000000000 270.342041016 -1.000000000 -999 200.000000000 285.752899170
0.065097418 0.914399982 0.031315134 -0.957853761 635.546081543 0.000000000 270.339630127 -1.000000000 -999 200.000000000 285.748107910
0.063182540 0.914399982 0.031176977 -0.967598182 639.176269531 0.000000000 270.336456299 -1.000000000 -999 200.000000000 285.661712646
0.061268389 0.914399982 0.031029087 -0.977565967 643.066223145 0.000000000 270.333618164 -1.000000000 -999 200.000000000 285.597137451
0.059355049 0.914399982 0.030871059 -0.987767867 647.235656738 0.000000000 270.331420898 -1.000000000 -999 200.000000000 285.589904785
0.057442608 0.914399982 0.030702493 -0.998193131 651.770141602 0.000000000 270.328826904 -1.000000000 -999 200.000000000 285.690063477
0.055531165 0.914399982 0.030522966 -1.008860871 656.692810059 0.000000000 270.325836182 -1.000000000 -999 200.000000000 285.843292236
0.053620825 0.914399982 0.030332054 -1.019798560 662.032592773 0.000000000 270.322570801 -1.000000000 -999 200.000000000 286.027832031
0.051711701 0.914399982 0.030129350 -1.030985891 667.855163574 0.000000000 270.318328857 -1.000000000 -999 200.000000000 286.317169189
0.049803932 0.914399982 0.029914260 -1.042427642 673.586303711 0.000000000 270.313781738 -1.000000000 -999 200.000000000 286.684387207
0.047897676 0.914399982 0.029686155 -1.054096341 678.771728516 0.000000000 270.308471680 -1.000000000 -999 200.000000000 287.068084717
0.045993097 0.914399982 0.029444448 -1.065940626 684.526428223 0.000000000 270.301544189 -1.000000000 -999 200.000000000 287.363861084
0.044090396 0.914399982 0.029188374 -1.078030970 691.788085938 0.000000000 270.294708252 -1.000000000 -999 200.000000000 287.393463135
0.042189758 0.914399982 0.028917416 -1.090392458 700.033996582 0.000000000 270.287048340 -1.000000000 -999 200.000000000 287.185119629
0.040291443 0.914399982 0.028630633 -1.103083616 708.574157715 0.000000000 270.276947021 -1.000000000 -999 200.000000000 286.719055176
0.038395746 0.914399982 0.028327023 -1.116105641 717.067749023 0.000000000 270.265655518 -1.000000000 -999 200.000000000 285.978546143
0.036502993 0.914399982 0.028005572 -1.129548116 725.076599121 0.000000000 270.254211426 -1.000000000 -999 200.000000000 285.086364746
0.034613540 0.914399982 0.027665264 -1.143718018 732.295959473 0.000000000 270.243133545 -1.000000000 -999 200.000000000 284.285064697
0.032727792 0.914399982 0.027304986 -1.158751517 739.021606445 0.000000000 270.233306885 -1.000000000 -999 200.000000000 283.825469971
0.030846311 0.914399982 0.026923051 -1.174593666 746.187622070 0.000000000 270.226074219 -1.000000000 -999 200.000000000 283.303680420
0.028969711 0.914399982 0.026517818 -1.190908823 756.425964355 0.000000000 270.219848633 -1.000000000 -999 200.000000000 281.854919434
0.027098677 0.914399982 0.026087611 -1.208399329 772.379638672 0.000000000 270.213348389 -1.000000000 -999 200.000000000 279.365844727
0.025234006 0.914399982 0.025630616 -1.226504984 791.604919434 0.000000000 270.206359863 -1.000000000 -999 200.000000000 276.514953613
0.023376849 0.914399982 0.025143983 -1.244237967 809.511413574 0.000000000 270.196166992 -1.000000000 -999 200.000000000 273.131713867
0.021528514 0.914399982 0.024624848 -1.262506068 823.520080566 0.000000000 270.183868408 -1.000000000 -999 200.000000000 267.993041992
0.019690502 0.914399982 0.024070270 -1.280319080 834.350158691 0.000000000 270.171203613 -1.000000000 -999 200.000000000 260.238586426
0.017864777 0.914399982 0.023476494 -1.298847574 849.569641113 0.000000000 270.160858154 -1.000000000 -999 200.000000000 250.011245728
0.016054128 0.914399982 0.022838221 -1.317407125 871.917114258 0.000000000 270.153686523 -1.000000000 -999 200.000000000 239.118026733
0.014261831 0.914399982 0.022150096 -1.332919603 895.657653809 0.000000000 270.145202637 -1.000000000 -999 200.000000000 235.257049561
0.012492071 0.914399982 0.021405923 -1.346119602 919.304687500 0.000000000 270.134155273 -1.000000000 -999 200.000000000 248.045974731
0.010751423 0.914399982 0.020595993 -1.351672656 949.742553711 0.000000000 270.125976562 0.000000000 -999 200.000000000 281.514038086
0.009048044 0.914399982 0.019710362 -1.346333411 1003.123229980 0.020501390 270.481842041 1.000000000 -999 200.896636963 333.315704346
0.007416096 0.914399982 0.018750367 -1.326210310 1077.904907230 0.080342054 271.433746338 1.000000000 -999 216.341781616 381.808593750
0.005990827 0.914399982 0.017789700 -1.286472948 1157.509521480 0.147356302 272.371032715 1.000000000 -999 256.402557373 416.507995605
0.004754339 0.914399982 0.016830031 -1.222127281 1239.737060550 0.217634752 273.149993896 0.996892929 -999 325.644165039 450.162811279
0.003712459 0.914399982 0.015889104 -1.121738723 1336.211181640 0.290686339 273.149993896 0.975263298 -999 428.648864746 469.359527588
0.002827733 0.914399982 0.014946849 -0.985134078 1437.811645510 0.364919215 273.149993896 0.961883724 -999 537.399353027 498.131195068
0.002091295 0.914399982 0.014007415 -0.813248610 1534.868408200 0.438489348 273.149993896 0.952529192 -999 638.079895020 593.020385742
0.001496934 0.914399982 0.013077218 -0.606884996 1631.733886720 0.510115683 273.149993896 0.945664763 -999 717.202087402 713.472961426
0.001032923 0.914399982 0.012151668 -0.366537744 1720.239501950 0.577351332 273.149993896 0.940254033 -999 767.942504883 809.027954102
0.000684537 0.914399982 0.011210762 -0.106607288 1760.773803710 0.636058807 273.149993896 0.935187519 -999 793.702331543 862.934753418
0.000447798 0.914399982 0.010254523 0.150841076 1733.716674800 0.683528602 273.149993896 0.927386224 -999 804.543212891 858.396362305
0.000324826 0.914399982 0.009302026 0.393711032 1648.537475590 0.718926370 273.149993896 0.877540112 -999 813.486022949 810.044860840
0.000314271 0.914399982 0.008336981 0.605777007 1509.719604490 0.739730179 273.149993896 0.672225118 -999 838.234191895 772.524230957
0.000416868 0.914399982 0.007352469 0.779860286 1323.650024410 0.745395243 273.149993896 0.564213514 -999 850.972778320 777.118164062
0.000633289 0.914399982 0.006367721 0.906411144 1105.773681640 0.738825381 273.149993896 0.507394791 -999 857.633300781 774.221374512
0.000967577 0.914399982 0.005381619 0.980560956 867.557067871 0.721172452 273.149993896 0.496878028 -999 858.855957031 731.308776855
0.001430806 0.914399982 0.004374317 1.014341535 671.958557129 0.693741262 273.149993896 0.565958738 -999 850.716857910 691.580993652
0.002034718 0.914399982 0.003337616 1.012122225 626.952331543 0.659704864 273.149993896 0.546760678 -999 852.723510742 655.680969238
0.002785974 0.914399982 0.002277469 0.980728180 679.850524902 0.621200919 273.149993896 0.449134916 -999 863.489196777 591.224060059
0.003696948 0.914399982 0.001193788 0.928730861 718.062072754 0.579716921 273.149993896 0.415674120 -999 865.597167969 520.938964844
0.004800006 0.914399982 0.000064768 0.863734212 739.125610352 0.536691725 273.149993896 0.408368796 -999 862.268676758 480.286041260
0.006089862 0.914399982 -0.001089938 0.790610444 746.688659668 0.492875725 273.149993896 0.416824490 -999 852.868652344 451.729187012
0.007589442 0.914399982 -0.002275049 0.717179699 731.424011230 0.450291544 273.149993896 0.423345417 -999 838.481811523 418.204406738
0.009163334 0.914399982 -0.003390788 0.646380353 713.266052246 0.411226392 273.149993896 0.430519193 -999 819.531982422 394.732604980
0.010784586 0.914399982 -0.004436519 0.582910227 708.576477051 0.376060367 273.149993896 0.457187653 -999 792.171569824 385.798858643
0.012443676 0.914399982 -0.005421115 0.526518482 704.477172852 0.344762921 273.149993896 0.505782187 -999 754.371948242 380.761260986
0.014132762 0.914399982 -0.006353315 0.476795419 692.709594727 0.316757739 273.149993896 0.582307220 -999 702.013122559 376.731903076
0.015846925 0.914399982 -0.007238558 0.432169124 680.173583984 0.291287631 273.149993896 0.713279426 -999 621.281250000 371.805023193
0.017582139 0.914399982 -0.008081790 0.391780781 673.358581543 0.268227369 273.149993896 0.913770318 -999 500.114044189 367.216552734
0.019334913 0.914399982 -0.008887889 0.355589778 669.825927734 0.247239798 273.149993896 0.931173980 -999 457.387023926 364.633728027
0.021102815 0.914399982 -0.009660243 0.322758795 664.808288574 0.227834627 273.149993896 0.934430480 -999 424.656280518 362.198242188
0.022883979 0.914399982 -0.010401503 0.292853051 659.577392578 0.209886715 273.149993896 0.937947452 -999 395.369781494 358.945983887
0.024676638 0.914399982 -0.011114515 0.265356536 659.227294922 0.193374678 273.149993896 0.942113519 -999 369.244598389 356.039855957
0.026479306 0.914399982 -0.011801827 0.240233417 661.616088867 0.178026766 273.149993896 0.946916938 -999 345.787963867 354.164489746
0.028290955 0.914399982 -0.012465106 0.217433526 660.929382324 0.163594544 273.149993896 0.951960266 -999 324.798248291 352.699188232