#+++++++++++++++++++++++++++++++++++++++++++++++++++++++++++++++++++++++++++++++++++++++++++++++++++++++++++++++++++++++++++++++++
#
#   IPW-3 Cut/Slice DATA SUBMITTAL FORM for Test Case NACA0012_Cp_Conditions
#
#       NOMENCLATURE:
#                  X [m]:  X-coordinate of the surface (clean for reference)
#                  Y [m]:  Y-coordinate of the surface (clean for reference)
#                  Z [m]:  Z-coordinate of the surface (clean for reference)
#                  Cp [-]:  Pressure coefficient
#
#    FLOW CONDITIONS:
#                                   AOA: 4.0 deg
#                           Mach Number: 0.3114 [-]
#       Mean aerodynamic chord (M.A.C.): 0.5334 [m]
#                       Reynolds Number: 3.8441 million (based on MAC)
#                       Freestream Temp: 267.75 [K]
#                        Reference area: 0.97548 [m2]
#               Moment Reference Center: 0.13335, 0, 0 [m] (X, Y, Z)
#
#
#              NOTES: 1. Please use at least 5 decimal places in the numerical values
#                     2. If data are NOT provided, please fill data fields with a numerical value of "-999"
#
#+++++++++++++++++++++++++++++++++++++++++++++++++++++++++++++++++++++++++++++++++++++++++++++++++++++++++++++++++++++++++++++++++++
 VARIABLES = "X" "Y" "Z" "Cp"

ZONE T="SLICE_Y_0p9144_CUTDATA"
1.90151427e-02 5.00000000e-01 -8.73192586e-03 4.15309608e-01
1.95120294e-02 5.00000000e-01 -8.95686168e-03 4.03939605e-01
2.02018898e-02 5.00000000e-01 -9.25966073e-03 3.92856151e-01
2.07001064e-02 5.00000000e-01 -9.47559997e-03 3.81759346e-01
2.11975090e-02 5.00000000e-01 -9.68905073e-03 3.70623887e-01
2.18966939e-02 5.00000000e-01 -9.98294540e-03 3.59852880e-01
2.23935191e-02 5.00000000e-01 -1.01895351e-02 3.49295139e-01
2.28909962e-02 5.00000000e-01 -1.03921248e-02 3.39088589e-01
2.35987417e-02 5.00000000e-01 -1.06774811e-02 3.29523414e-01
2.43122689e-02 5.00000000e-01 -1.09613575e-02 3.20689201e-01
2.48094872e-02 5.00000000e-01 -1.11546814e-02 3.12266797e-01
2.53051519e-02 5.00000000e-01 -1.13469530e-02 3.04585636e-01
2.60260701e-02 5.00000000e-01 -1.16199274e-02 2.97081351e-01
2.67505776e-02 5.00000000e-01 -1.18906628e-02 2.89953053e-01
2.72472501e-02 5.00000000e-01 -1.20748440e-02 2.82864332e-01
2.77442336e-02 5.00000000e-01 -1.22557068e-02 2.75856346e-01
2.84741428e-02 5.00000000e-01 -1.25196558e-02 2.68778562e-01
2.89700441e-02 5.00000000e-01 -1.26952920e-02 2.61554897e-01
2.94659473e-02 5.00000000e-01 -1.28709292e-02 2.54331529e-01
3.01996469e-02 5.00000000e-01 -1.31252715e-02 2.47274786e-01
3.09380274e-02 5.00000000e-01 -1.33780995e-02 2.40387022e-01
3.14329006e-02 5.00000000e-01 -1.35451537e-02 2.33563706e-01
3.19264457e-02 5.00000000e-01 -1.37106068e-02 2.26995528e-01
3.26691605e-02 5.00000000e-01 -1.39567321e-02 2.20476195e-01
3.34144570e-02 5.00000000e-01 -1.41995484e-02 2.14130670e-01
3.39082442e-02 5.00000000e-01 -1.43592581e-02 2.07760826e-01
3.44007276e-02 5.00000000e-01 -1.45162279e-02 2.01461419e-01
3.51499021e-02 5.00000000e-01 -1.47534320e-02 1.95106313e-01
3.59011442e-02 5.00000000e-01 -1.49871372e-02 1.88850552e-01
3.63937356e-02 5.00000000e-01 -1.51399523e-02 1.82600051e-01
3.68849263e-02 5.00000000e-01 -1.52896280e-02 1.76610351e-01
3.76395360e-02 5.00000000e-01 -1.55189121e-02 1.70799687e-01
3.83960493e-02 5.00000000e-01 -1.57438423e-02 1.65370464e-01
3.91556062e-02 5.00000000e-01 -1.59680378e-02 1.60249203e-01
3.96461263e-02 5.00000000e-01 -1.61107201e-02 1.55303985e-01
4.01366465e-02 5.00000000e-01 -1.62534043e-02 1.50551885e-01
4.08977084e-02 5.00000000e-01 -1.64703894e-02 1.45911887e-01
4.16615568e-02 5.00000000e-01 -1.66867878e-02 1.41333103e-01
4.21505980e-02 5.00000000e-01 -1.68231707e-02 1.36752725e-01
4.26396392e-02 5.00000000e-01 -1.69595536e-02 1.32221818e-01
4.34045605e-02 5.00000000e-01 -1.71697400e-02 1.27777010e-01
4.41718735e-02 5.00000000e-01 -1.73794832e-02 1.23419516e-01
4.49410789e-02 5.00000000e-01 -1.75853055e-02 1.19127378e-01
4.54285927e-02 5.00000000e-01 -1.77157540e-02 1.14915281e-01
4.59151901e-02 5.00000000e-01 -1.78435799e-02 1.10832050e-01
4.66865189e-02 5.00000000e-01 -1.80456732e-02 1.06786698e-01
4.74593118e-02 5.00000000e-01 -1.82446372e-02 1.02836415e-01
4.82328236e-02 5.00000000e-01 -1.84427984e-02 9.89172757e-02
4.87192608e-02 5.00000000e-01 -1.85652599e-02 9.50526446e-02
4.92043905e-02 5.00000000e-01 -1.86873376e-02 9.12356675e-02
4.99796048e-02 5.00000000e-01 -1.88808776e-02 8.75085890e-02
5.07564992e-02 5.00000000e-01 -1.90727450e-02 8.38742182e-02
5.15356846e-02 5.00000000e-01 -1.92625113e-02 8.03904235e-02
5.20190969e-02 5.00000000e-01 -1.93790793e-02 7.69897625e-02
5.25025092e-02 5.00000000e-01 -1.94956474e-02 7.37409815e-02
5.32818176e-02 5.00000000e-01 -1.96803175e-02 7.06110522e-02
5.40627651e-02 5.00000000e-01 -1.98649336e-02 6.75935745e-02
5.48449121e-02 5.00000000e-01 -2.00464632e-02 6.46221489e-02
5.53267486e-02 5.00000000e-01 -2.01582927e-02 6.16751835e-02
5.58073856e-02 5.00000000e-01 -2.02682260e-02 5.87522239e-02
5.65911904e-02 5.00000000e-01 -2.04463396e-02 5.58177829e-02
5.73754609e-02 5.00000000e-01 -2.06227209e-02 5.29196896e-02
5.81608154e-02 5.00000000e-01 -2.07975600e-02 5.00280224e-02
5.89481592e-02 5.00000000e-01 -2.09708232e-02 4.71775420e-02
5.94273955e-02 5.00000000e-01 -2.10753530e-02 4.43291850e-02
5.99066317e-02 5.00000000e-01 -2.11798828e-02 4.15091552e-02
6.06937185e-02 5.00000000e-01 -2.13487633e-02 3.87297384e-02
6.14819601e-02 5.00000000e-01 -2.15173047e-02 3.59737165e-02
6.22718222e-02 5.00000000e-01 -2.16833241e-02 3.32811698e-02
6.27493560e-02 5.00000000e-01 -2.17833798e-02 3.06169242e-02
6.32254258e-02 5.00000000e-01 -2.18829531e-02 2.80669555e-02
6.40163496e-02 5.00000000e-01 -2.20453627e-02 2.55903527e-02
6.48071170e-02 5.00000000e-01 -2.22076383e-02 2.32278928e-02
6.55992851e-02 5.00000000e-01 -2.23671310e-02 2.09003445e-02
6.63914532e-02 5.00000000e-01 -2.25266218e-02 1.85720902e-02
6.68674633e-02 5.00000000e-01 -2.26205885e-02 1.62395183e-02
6.73424378e-02 5.00000000e-01 -2.27143187e-02 1.39005380e-02
6.81351200e-02 5.00000000e-01 -2.28703674e-02 1.16381785e-02
6.89296499e-02 5.00000000e-01 -2.30241194e-02 9.46550816e-03
6.97246194e-02 5.00000000e-01 -2.31778063e-02 7.41388602e-03
7.05204382e-02 5.00000000e-01 -2.33282894e-02 5.43181971e-03
7.09935948e-02 5.00000000e-01 -2.34177597e-02 3.49915982e-03
7.14654177e-02 5.00000000e-01 -2.35066079e-02 1.64539041e-03
7.22622946e-02 5.00000000e-01 -2.36543827e-02 -1.50669875e-04
7.30588138e-02 5.00000000e-01 -2.38020811e-02 -1.85931905e-03
7.38567039e-02 5.00000000e-01 -2.39471886e-02 -3.55932233e-03
7.46545941e-02 5.00000000e-01 -2.40922980e-02 -5.33631863e-03
7.54540265e-02 5.00000000e-01 -2.42352821e-02 -7.26622855e-03
7.59247020e-02 5.00000000e-01 -2.43192334e-02 -9.35698114e-03
7.63953775e-02 5.00000000e-01 -2.44031865e-02 -1.15842046e-02
7.71940425e-02 5.00000000e-01 -2.45432034e-02 -1.37967980e-02
7.79938549e-02 5.00000000e-01 -2.46830713e-02 -1.59590933e-02
7.87943825e-02 5.00000000e-01 -2.48209350e-02 -1.80071089e-02
7.95952454e-02 5.00000000e-01 -2.49578897e-02 -1.99567713e-02
8.03977400e-02 5.00000000e-01 -2.50936057e-02 -2.17976179e-02
8.08656812e-02 5.00000000e-01 -2.51718033e-02 -2.35618725e-02
8.13336298e-02 5.00000000e-01 -2.52499990e-02 -2.51303967e-02
8.21351707e-02 5.00000000e-01 -2.53828634e-02 -2.64955629e-02
8.29378664e-02 5.00000000e-01 -2.55144685e-02 -2.76310593e-02
8.37409273e-02 5.00000000e-01 -2.56456733e-02 -2.86399014e-02
8.45444277e-02 5.00000000e-01 -2.57748812e-02 -2.96990164e-02
8.53479356e-02 5.00000000e-01 -2.59040892e-02 -3.09486669e-02
8.58145580e-02 5.00000000e-01 -2.59776767e-02 -3.23797166e-02
8.62799808e-02 5.00000000e-01 -2.60508284e-02 -3.39921787e-02
8.70843902e-02 5.00000000e-01 -2.61772610e-02 -3.55971046e-02
8.78888667e-02 5.00000000e-01 -2.63017882e-02 -3.71223763e-02
8.86940137e-02 5.00000000e-01 -2.64259093e-02 -3.85474488e-02
8.94999355e-02 5.00000000e-01 -2.65488029e-02 -3.99060771e-02
9.03059095e-02 5.00000000e-01 -2.66702697e-02 -4.12925370e-02
9.07696337e-02 5.00000000e-01 -2.67401542e-02 -4.27292399e-02
9.12323445e-02 5.00000000e-01 -2.68091671e-02 -4.41941656e-02
9.20390040e-02 5.00000000e-01 -2.69283988e-02 -4.55953740e-02
9.28456560e-02 5.00000000e-01 -2.70476285e-02 -4.68556210e-02
9.36525688e-02 5.00000000e-01 -2.71643083e-02 -4.79532927e-02
9.44599882e-02 5.00000000e-01 -2.72809621e-02 -4.89790663e-02
9.52681377e-02 5.00000000e-01 -2.73963753e-02 -5.00603951e-02
9.60761979e-02 5.00000000e-01 -2.75108702e-02 -5.13270982e-02
9.65374708e-02 5.00000000e-01 -2.75762286e-02 -5.27657159e-02
9.69976559e-02 5.00000000e-01 -2.76405178e-02 -5.43197580e-02
9.78064314e-02 5.00000000e-01 -2.77525131e-02 -5.57916462e-02
9.86151993e-02 5.00000000e-01 -2.78645083e-02 -5.70385344e-02
9.94241387e-02 5.00000000e-01 -2.79741082e-02 -5.79628125e-02
1.00233600e-01 5.00000000e-01 -2.80836429e-02 -5.86090758e-02
1.01043738e-01 5.00000000e-01 -2.81919539e-02 -5.91206141e-02
1.01853855e-01 5.00000000e-01 -2.82990616e-02 -5.97064868e-02
1.02664948e-01 5.00000000e-01 -2.84061339e-02 -6.05145544e-02
1.03122823e-01 5.00000000e-01 -2.84655057e-02 -6.15398250e-02
1.03580706e-01 5.00000000e-01 -2.85248775e-02 -6.27432391e-02
1.04391359e-01 5.00000000e-01 -2.86299940e-02 -6.39018044e-02
1.05201893e-01 5.00000000e-01 -2.87332591e-02 -6.48960322e-02
1.06013164e-01 5.00000000e-01 -2.88359951e-02 -6.56551346e-02
1.06824704e-01 5.00000000e-01 -2.89382506e-02 -6.62182272e-02
1.07636459e-01 5.00000000e-01 -2.90390793e-02 -6.67479858e-02
1.08448215e-01 5.00000000e-01 -2.91399080e-02 -6.74329624e-02
1.09261304e-01 5.00000000e-01 -2.92391069e-02 -6.83976337e-02
1.09716736e-01 5.00000000e-01 -2.92943530e-02 -6.96056560e-02
1.10172167e-01 5.00000000e-01 -2.93495990e-02 -7.09661245e-02
1.10983953e-01 5.00000000e-01 -2.94472370e-02 -7.22204447e-02
1.11796826e-01 5.00000000e-01 -2.95435209e-02 -7.32322633e-02
1.12609707e-01 5.00000000e-01 -2.96398047e-02 -7.39103109e-02
1.13422960e-01 5.00000000e-01 -2.97342800e-02 -7.43089840e-02
1.14236355e-01 5.00000000e-01 -2.98283584e-02 -7.46136382e-02
1.15050495e-01 5.00000000e-01 -2.99219415e-02 -7.50425979e-02
1.15864404e-01 5.00000000e-01 -3.00138295e-02 -7.57648349e-02
1.16317302e-01 5.00000000e-01 -3.00649591e-02 -7.67503828e-02
1.16770193e-01 5.00000000e-01 -3.01160887e-02 -7.79530704e-02
1.17583618e-01 5.00000000e-01 -3.02064773e-02 -7.90983736e-02
1.18397921e-01 5.00000000e-01 -3.02965827e-02 -8.00326020e-02
1.19211935e-01 5.00000000e-01 -3.03861685e-02 -8.05981755e-02
1.20026797e-01 5.00000000e-01 -3.04737836e-02 -8.07731375e-02
1.20841652e-01 5.00000000e-01 -3.05613987e-02 -8.06629658e-02
1.21656939e-01 5.00000000e-01 -3.06480546e-02 -8.04795176e-02
1.22472167e-01 5.00000000e-01 -3.07339560e-02 -8.04738030e-02
1.23287395e-01 5.00000000e-01 -3.08198575e-02 -8.08495730e-02
1.24103859e-01 5.00000000e-01 -3.09039149e-02 -8.16935673e-02
1.24553613e-01 5.00000000e-01 -3.09501439e-02 -8.28913599e-02
1.25003368e-01 5.00000000e-01 -3.09963748e-02 -8.43167007e-02
1.25818580e-01 5.00000000e-01 -3.10795139e-02 -8.56439471e-02
1.26634598e-01 5.00000000e-01 -3.11616790e-02 -8.66941214e-02
1.27450600e-01 5.00000000e-01 -3.12438440e-02 -8.73021707e-02
1.28266782e-01 5.00000000e-01 -3.13243195e-02 -8.74355584e-02
1.29083261e-01 5.00000000e-01 -3.14041264e-02 -8.72069001e-02
1.29900143e-01 5.00000000e-01 -3.14839371e-02 -8.68291855e-02
1.30716994e-01 5.00000000e-01 -3.15617509e-02 -8.65644142e-02
1.31533861e-01 5.00000000e-01 -3.16395685e-02 -8.66408795e-02
1.32351547e-01 5.00000000e-01 -3.17169689e-02 -8.71808529e-02
1.32798254e-01 5.00000000e-01 -3.17586362e-02 -8.80877152e-02
1.33244947e-01 5.00000000e-01 -3.18003073e-02 -8.92877355e-02
1.34062111e-01 5.00000000e-01 -3.18765342e-02 -9.04639512e-02
1.34878948e-01 5.00000000e-01 -3.19514275e-02 -9.14530084e-02
1.35696471e-01 5.00000000e-01 -3.20257321e-02 -9.20872241e-02
1.36513993e-01 5.00000000e-01 -3.21000405e-02 -9.22991857e-02
1.37331739e-01 5.00000000e-01 -3.21725905e-02 -9.21433121e-02
1.38149604e-01 5.00000000e-01 -3.22449915e-02 -9.17738378e-02
1.38967901e-01 5.00000000e-01 -3.23171467e-02 -9.13426057e-02
1.39786094e-01 5.00000000e-01 -3.23876776e-02 -9.11297500e-02
1.40604287e-01 5.00000000e-01 -3.24582122e-02 -9.13092569e-02
1.41423419e-01 5.00000000e-01 -3.25281285e-02 -9.19512659e-02
1.41867012e-01 5.00000000e-01 -3.25653479e-02 -9.29381773e-02
1.42310604e-01 5.00000000e-01 -3.26025635e-02 -9.41618457e-02
1.43129125e-01 5.00000000e-01 -3.26712318e-02 -9.53198373e-02
1.43947229e-01 5.00000000e-01 -3.27386782e-02 -9.62461457e-02
1.44766048e-01 5.00000000e-01 -3.28055285e-02 -9.67913196e-02
1.45584866e-01 5.00000000e-01 -3.28723788e-02 -9.69028622e-02
1.46403730e-01 5.00000000e-01 -3.29377241e-02 -9.66348275e-02
1.47222847e-01 5.00000000e-01 -3.30027677e-02 -9.61212665e-02
1.48041964e-01 5.00000000e-01 -3.30678076e-02 -9.55422893e-02
1.48861572e-01 5.00000000e-01 -3.31311151e-02 -9.50999856e-02
1.49680957e-01 5.00000000e-01 -3.31943743e-02 -9.49843824e-02
1.50500864e-01 5.00000000e-01 -3.32574956e-02 -9.53313559e-02
1.51320487e-01 5.00000000e-01 -3.33193392e-02 -9.61702317e-02
1.51761204e-01 5.00000000e-01 -3.33525948e-02 -9.73500460e-02
1.52201936e-01 5.00000000e-01 -3.33858505e-02 -9.86927673e-02
1.53020844e-01 5.00000000e-01 -3.34470719e-02 -9.98747349e-02
1.53840721e-01 5.00000000e-01 -3.35071720e-02 -1.00708008e-01
1.54660597e-01 5.00000000e-01 -3.35672721e-02 -1.01065055e-01
1.55480102e-01 5.00000000e-01 -3.36264595e-02 -1.00952596e-01
1.56300277e-01 5.00000000e-01 -3.36844996e-02 -1.00483023e-01
1.57120451e-01 5.00000000e-01 -3.37425396e-02 -9.98067409e-02
1.57940686e-01 5.00000000e-01 -3.37998755e-02 -9.90577638e-02
1.58761039e-01 5.00000000e-01 -3.38565595e-02 -9.83230174e-02
1.59581408e-01 5.00000000e-01 -3.39132398e-02 -9.76552069e-02
1.60402194e-01 5.00000000e-01 -3.39689553e-02 -9.71051231e-02
1.61222786e-01 5.00000000e-01 -3.40239555e-02 -9.67486799e-02
1.62043378e-01 5.00000000e-01 -3.40789556e-02 -9.66927037e-02
1.62864730e-01 5.00000000e-01 -3.41329351e-02 -9.70360115e-02
1.63685545e-01 5.00000000e-01 -3.41862738e-02 -9.78152379e-02
1.64122611e-01 5.00000000e-01 -3.42146792e-02 -9.89079177e-02
1.64559692e-01 5.00000000e-01 -3.42430845e-02 -1.00192137e-01
1.65379927e-01 5.00000000e-01 -3.42951641e-02 -1.01375930e-01
1.66200951e-01 5.00000000e-01 -3.43468599e-02 -1.02296569e-01
1.67021975e-01 5.00000000e-01 -3.43985558e-02 -1.02814145e-01
1.67842746e-01 5.00000000e-01 -3.44489999e-02 -1.02903299e-01
1.68663964e-01 5.00000000e-01 -3.44990753e-02 -1.02641553e-01
1.69485196e-01 5.00000000e-01 -3.45491469e-02 -1.02155350e-01
1.70306444e-01 5.00000000e-01 -3.45982499e-02 -1.01569332e-01
1.71127826e-01 5.00000000e-01 -3.46470438e-02 -1.00965276e-01
1.71949208e-01 5.00000000e-01 -3.46958414e-02 -1.00375928e-01
1.72770962e-01 5.00000000e-01 -3.47432308e-02 -9.98048261e-02
1.73592567e-01 5.00000000e-01 -3.47901061e-02 -9.92586464e-02
1.74414173e-01 5.00000000e-01 -3.48369852e-02 -9.87881646e-02
1.75236225e-01 5.00000000e-01 -3.48830037e-02 -9.84990299e-02
1.76057965e-01 5.00000000e-01 -3.49286385e-02 -9.85295475e-02
1.76879704e-01 5.00000000e-01 -3.49742733e-02 -9.89971906e-02
1.77702278e-01 5.00000000e-01 -3.50189209e-02 -9.99250412e-02
1.78135261e-01 5.00000000e-01 -3.50421406e-02 -1.01169944e-01
1.78568259e-01 5.00000000e-01 -3.50653566e-02 -1.02536790e-01
1.79390177e-01 5.00000000e-01 -3.51094306e-02 -1.03709288e-01
1.80211604e-01 5.00000000e-01 -3.51524837e-02 -1.04485840e-01
1.81033671e-01 5.00000000e-01 -3.51950228e-02 -1.04755297e-01
1.81855753e-01 5.00000000e-01 -3.52375582e-02 -1.04542844e-01
1.82677567e-01 5.00000000e-01 -3.52792256e-02 -1.03983842e-01
1.83499798e-01 5.00000000e-01 -3.53202298e-02 -1.03255264e-01
1.84322029e-01 5.00000000e-01 -3.53612378e-02 -1.02511138e-01
1.85144231e-01 5.00000000e-01 -3.54017019e-02 -1.01846814e-01
1.85966581e-01 5.00000000e-01 -3.54415253e-02 -1.01291671e-01
1.86788932e-01 5.00000000e-01 -3.54813524e-02 -1.00828469e-01
1.87611491e-01 5.00000000e-01 -3.55205685e-02 -1.00414090e-01
1.88434005e-01 5.00000000e-01 -3.55585739e-02 -9.99945030e-02
1.89256534e-01 5.00000000e-01 -3.55965830e-02 -9.95250940e-02
1.90079331e-01 5.00000000e-01 -3.56343612e-02 -9.89827365e-02
1.90901965e-01 5.00000000e-01 -3.56711969e-02 -9.83820632e-02
1.91724598e-01 5.00000000e-01 -3.57080363e-02 -9.77982432e-02
1.92547768e-01 5.00000000e-01 -3.57448161e-02 -9.73675698e-02
1.93370521e-01 5.00000000e-01 -3.57801914e-02 -9.72574130e-02
1.94193274e-01 5.00000000e-01 -3.58155668e-02 -9.76118147e-02
1.95016041e-01 5.00000000e-01 -3.58509421e-02 -9.84731838e-02
1.95445135e-01 5.00000000e-01 -3.58689204e-02 -9.96902883e-02
1.95873678e-01 5.00000000e-01 -3.58867496e-02 -1.01079606e-01
1.96696535e-01 5.00000000e-01 -3.59209813e-02 -1.02297537e-01
1.97519392e-01 5.00000000e-01 -3.59552130e-02 -1.03138499e-01
1.98341802e-01 5.00000000e-01 -3.59883495e-02 -1.03468679e-01
1.99164778e-01 5.00000000e-01 -3.60211432e-02 -1.03301980e-01
1.99987754e-01 5.00000000e-01 -3.60539406e-02 -1.02762453e-01
2.00810432e-01 5.00000000e-01 -3.60859372e-02 -1.02023192e-01
2.01633513e-01 5.00000000e-01 -3.61173041e-02 -1.01238362e-01
2.02456594e-01 5.00000000e-01 -3.61486711e-02 -1.00508869e-01
2.03279555e-01 5.00000000e-01 -3.61795612e-02 -9.98784453e-02
2.04102740e-01 5.00000000e-01 -3.62095125e-02 -9.93481502e-02
2.04925924e-01 5.00000000e-01 -3.62394601e-02 -9.89032760e-02
2.05749124e-01 5.00000000e-01 -3.62692997e-02 -9.85263214e-02
2.06572384e-01 5.00000000e-01 -3.62981446e-02 -9.82017443e-02
2.07395658e-01 5.00000000e-01 -3.63269895e-02 -9.79183987e-02
2.08218932e-01 5.00000000e-01 -3.63558307e-02 -9.76637229e-02
2.09042430e-01 5.00000000e-01 -3.63835022e-02 -9.74217132e-02
2.09865794e-01 5.00000000e-01 -3.64109650e-02 -9.71690565e-02
2.10689157e-01 5.00000000e-01 -3.64384316e-02 -9.68787819e-02
2.11512879e-01 5.00000000e-01 -3.64650823e-02 -9.65211168e-02
2.12336332e-01 5.00000000e-01 -3.64911556e-02 -9.60671082e-02
2.13159785e-01 5.00000000e-01 -3.65172327e-02 -9.55066830e-02
2.13983610e-01 5.00000000e-01 -3.65429819e-02 -9.48669985e-02
2.14807123e-01 5.00000000e-01 -3.65679935e-02 -9.42302793e-02
2.15630636e-01 5.00000000e-01 -3.65930088e-02 -9.37447399e-02
2.16454729e-01 5.00000000e-01 -3.66180055e-02 -9.35949981e-02
2.17278332e-01 5.00000000e-01 -3.66416685e-02 -9.39361751e-02
2.18101934e-01 5.00000000e-01 -3.66653278e-02 -9.48183537e-02
2.18525559e-01 5.00000000e-01 -3.66774984e-02 -9.60823446e-02
2.18949199e-01 5.00000000e-01 -3.66896689e-02 -9.75218937e-02
2.19772324e-01 5.00000000e-01 -3.67125310e-02 -9.87554640e-02
2.20595986e-01 5.00000000e-01 -3.67351398e-02 -9.95459557e-02
2.21419647e-01 5.00000000e-01 -3.67577486e-02 -9.97382402e-02
2.22242802e-01 5.00000000e-01 -3.67797762e-02 -9.93475765e-02
2.23066539e-01 5.00000000e-01 -3.68010402e-02 -9.85291302e-02
2.23890275e-01 5.00000000e-01 -3.68223078e-02 -9.75001827e-02
2.24713609e-01 5.00000000e-01 -3.68434526e-02 -9.64617804e-02
2.25537404e-01 5.00000000e-01 -3.68634015e-02 -9.55447257e-02
2.26361200e-01 5.00000000e-01 -3.68833505e-02 -9.48042274e-02
2.27184996e-01 5.00000000e-01 -3.69032994e-02 -9.42356512e-02
2.28008598e-01 5.00000000e-01 -3.69224846e-02 -9.38042551e-02
2.28832439e-01 5.00000000e-01 -3.69413979e-02 -9.34668481e-02
2.29656279e-01 5.00000000e-01 -3.69603075e-02 -9.31887925e-02
2.30480000e-01 5.00000000e-01 -3.69788557e-02 -9.29464102e-02
2.31303886e-01 5.00000000e-01 -3.69967669e-02 -9.27242711e-02
2.32127771e-01 5.00000000e-01 -3.70146744e-02 -9.25138965e-02
2.32951671e-01 5.00000000e-01 -3.70325856e-02 -9.23082456e-02
2.33775511e-01 5.00000000e-01 -3.70492116e-02 -9.21006352e-02
2.34599456e-01 5.00000000e-01 -3.70658077e-02 -9.18825790e-02
2.35423401e-01 5.00000000e-01 -3.70824039e-02 -9.16478559e-02
2.36247361e-01 5.00000000e-01 -3.70984264e-02 -9.13923383e-02
2.37071350e-01 5.00000000e-01 -3.71140279e-02 -9.11136717e-02
2.37895325e-01 5.00000000e-01 -3.71296294e-02 -9.08138529e-02
2.38719404e-01 5.00000000e-01 -3.71450186e-02 -9.04976502e-02
2.39543423e-01 5.00000000e-01 -3.71593386e-02 -9.01694298e-02
2.40367457e-01 5.00000000e-01 -3.71736623e-02 -8.98357779e-02
2.41191491e-01 5.00000000e-01 -3.71879861e-02 -8.95019025e-02
2.42015660e-01 5.00000000e-01 -3.72015722e-02 -8.91721547e-02
2.42839724e-01 5.00000000e-01 -3.72149013e-02 -8.88479874e-02
2.43663788e-01 5.00000000e-01 -3.72282304e-02 -8.85312855e-02
2.44488031e-01 5.00000000e-01 -3.72412726e-02 -8.82229283e-02
2.45312125e-01 5.00000000e-01 -3.72536294e-02 -8.79210979e-02
2.46136218e-01 5.00000000e-01 -3.72659899e-02 -8.76235515e-02
2.46960312e-01 5.00000000e-01 -3.72783467e-02 -8.73256847e-02
2.47784734e-01 5.00000000e-01 -3.72896418e-02 -8.70225281e-02
2.48608857e-01 5.00000000e-01 -3.73007357e-02 -8.67082551e-02
2.49432981e-01 5.00000000e-01 -3.73118296e-02 -8.63817781e-02
2.50257403e-01 5.00000000e-01 -3.73225622e-02 -8.60457346e-02
2.51081556e-01 5.00000000e-01 -3.73326875e-02 -8.57042968e-02
2.51905710e-01 5.00000000e-01 -3.73428129e-02 -8.53641033e-02
2.52729863e-01 5.00000000e-01 -3.73529345e-02 -8.50299075e-02
2.53554344e-01 5.00000000e-01 -3.73622030e-02 -8.47042426e-02
2.54378498e-01 5.00000000e-01 -3.73713672e-02 -8.43854621e-02
2.55202681e-01 5.00000000e-01 -3.73805314e-02 -8.40717852e-02
2.56027222e-01 5.00000000e-01 -3.73893157e-02 -8.37607384e-02
2.56851405e-01 5.00000000e-01 -3.73975262e-02 -8.34480226e-02
2.57675618e-01 5.00000000e-01 -3.74057367e-02 -8.31300840e-02
2.58499801e-01 5.00000000e-01 -3.74139473e-02 -8.28019977e-02
2.59324491e-01 5.00000000e-01 -3.74210626e-02 -8.24592263e-02
2.60148734e-01 5.00000000e-01 -3.74280401e-02 -8.20963010e-02
2.60972947e-01 5.00000000e-01 -3.74350212e-02 -8.17124695e-02
2.61797547e-01 5.00000000e-01 -3.74416560e-02 -8.13139007e-02
2.62621790e-01 5.00000000e-01 -3.74476984e-02 -8.08984116e-02
2.63446033e-01 5.00000000e-01 -3.74537408e-02 -8.04675072e-02
2.64270276e-01 5.00000000e-01 -3.74597833e-02 -8.00157413e-02
2.65094936e-01 5.00000000e-01 -3.74650359e-02 -7.95291662e-02
2.65919179e-01 5.00000000e-01 -3.74701284e-02 -7.89830759e-02
2.66743422e-01 5.00000000e-01 -3.74752209e-02 -7.83541053e-02
2.67568111e-01 5.00000000e-01 -3.74800488e-02 -7.76348561e-02
2.68392384e-01 5.00000000e-01 -3.74842174e-02 -7.68550560e-02
2.69216627e-01 5.00000000e-01 -3.74883860e-02 -7.61098415e-02
2.70040899e-01 5.00000000e-01 -3.74925546e-02 -7.55602792e-02
2.70865589e-01 5.00000000e-01 -3.74960601e-02 -7.54030645e-02
2.71689862e-01 5.00000000e-01 -3.74993086e-02 -7.57979229e-02
2.72514135e-01 5.00000000e-01 -3.75025608e-02 -7.67848790e-02
2.72927880e-01 5.00000000e-01 -3.75041924e-02 -7.81819597e-02
2.73341179e-01 5.00000000e-01 -3.75056751e-02 -7.97435790e-02
2.74165451e-01 5.00000000e-01 -3.75079811e-02 -8.10559169e-02
2.74989724e-01 5.00000000e-01 -3.75102870e-02 -8.18489715e-02
2.75813997e-01 5.00000000e-01 -3.75125892e-02 -8.19595084e-02
2.76637673e-01 5.00000000e-01 -3.75142246e-02 -8.14156830e-02
2.77461976e-01 5.00000000e-01 -3.75153460e-02 -8.04037824e-02
2.78286248e-01 5.00000000e-01 -3.75164710e-02 -7.91804493e-02
2.79110521e-01 5.00000000e-01 -3.75175960e-02 -7.79813155e-02
2.79934466e-01 5.00000000e-01 -3.75180803e-02 -7.69605488e-02
2.80758768e-01 5.00000000e-01 -3.75185460e-02 -7.61742815e-02
2.81583041e-01 5.00000000e-01 -3.75190079e-02 -7.56036043e-02
2.82406896e-01 5.00000000e-01 -3.75191607e-02 -7.51874372e-02
2.83231169e-01 5.00000000e-01 -3.75187322e-02 -7.48520419e-02
2.84055442e-01 5.00000000e-01 -3.75183076e-02 -7.45353997e-02
2.84879714e-01 5.00000000e-01 -3.75178792e-02 -7.41975159e-02
2.85703421e-01 5.00000000e-01 -3.75165828e-02 -7.38280416e-02
2.86527693e-01 5.00000000e-01 -3.75149623e-02 -7.34450743e-02
2.87351966e-01 5.00000000e-01 -3.75133380e-02 -7.30903745e-02
2.88175941e-01 5.00000000e-01 -3.75116616e-02 -7.28088617e-02
2.89000213e-01 5.00000000e-01 -3.75094339e-02 -7.26237073e-02
2.89824486e-01 5.00000000e-01 -3.75072062e-02 -7.25178644e-02
2.90648758e-01 5.00000000e-01 -3.75049785e-02 -7.24311694e-02
2.91062027e-01 5.00000000e-01 -3.75038609e-02 -7.23175034e-02
2.91475743e-01 5.00000000e-01 -3.75023335e-02 -7.20563307e-02
2.92299986e-01 5.00000000e-01 -3.74991745e-02 -7.16440380e-02
2.93124259e-01 5.00000000e-01 -3.74960154e-02 -7.10517466e-02
2.93948531e-01 5.00000000e-01 -3.74928564e-02 -7.03362450e-02
2.94773221e-01 5.00000000e-01 -3.74890007e-02 -6.95770308e-02
2.95597464e-01 5.00000000e-01 -3.74849588e-02 -6.88416585e-02
2.96421736e-01 5.00000000e-01 -3.74809131e-02 -6.81744367e-02
2.97246397e-01 5.00000000e-01 -3.74767706e-02 -6.75904900e-02
2.98070669e-01 5.00000000e-01 -3.74718458e-02 -6.70823529e-02
2.98894912e-01 5.00000000e-01 -3.74669209e-02 -6.66367263e-02
2.99719155e-01 5.00000000e-01 -3.74619961e-02 -6.62386641e-02
3.00543696e-01 5.00000000e-01 -3.74567956e-02 -6.58756346e-02
3.01367938e-01 5.00000000e-01 -3.74512263e-02 -6.55350611e-02
3.02192181e-01 5.00000000e-01 -3.74456570e-02 -6.52057678e-02
3.03016424e-01 5.00000000e-01 -3.74400877e-02 -6.48760647e-02
3.03841114e-01 5.00000000e-01 -3.74336802e-02 -6.45364001e-02
3.04665327e-01 5.00000000e-01 -3.74269746e-02 -6.41787350e-02
3.05489570e-01 5.00000000e-01 -3.74202691e-02 -6.38022274e-02
3.06314051e-01 5.00000000e-01 -3.74135450e-02 -6.34107664e-02
3.07138264e-01 5.00000000e-01 -3.74061987e-02 -6.30102083e-02
3.07962477e-01 5.00000000e-01 -3.73988561e-02 -6.26082122e-02
3.08786690e-01 5.00000000e-01 -3.73915099e-02 -6.22102469e-02
3.09611201e-01 5.00000000e-01 -3.73838991e-02 -6.18194006e-02
3.10435385e-01 5.00000000e-01 -3.73756997e-02 -6.14343807e-02
3.11259597e-01 5.00000000e-01 -3.73674966e-02 -6.10541590e-02
3.12083781e-01 5.00000000e-01 -3.73592935e-02 -6.06771186e-02
3.12908262e-01 5.00000000e-01 -3.73505726e-02 -6.03032261e-02
3.13732445e-01 5.00000000e-01 -3.73414718e-02 -5.99318966e-02
3.14556628e-01 5.00000000e-01 -3.73323746e-02 -5.95649220e-02
3.15380782e-01 5.00000000e-01 -3.73232737e-02 -5.92030808e-02
3.16205114e-01 5.00000000e-01 -3.73136736e-02 -5.88461980e-02
3.17029297e-01 5.00000000e-01 -3.73039693e-02 -5.84912635e-02
3.17853451e-01 5.00000000e-01 -3.72942686e-02 -5.81353530e-02
3.18677813e-01 5.00000000e-01 -3.72844934e-02 -5.77757172e-02
3.19501966e-01 5.00000000e-01 -3.72739062e-02 -5.74088097e-02
3.20326120e-01 5.00000000e-01 -3.72633189e-02 -5.70343472e-02
3.21150243e-01 5.00000000e-01 -3.72527316e-02 -5.66527992e-02
3.21974546e-01 5.00000000e-01 -3.72418575e-02 -5.62659800e-02
3.22798669e-01 5.00000000e-01 -3.72303911e-02 -5.58737181e-02
3.23622793e-01 5.00000000e-01 -3.72189209e-02 -5.54770827e-02
3.24446917e-01 5.00000000e-01 -3.72074507e-02 -5.50754704e-02
3.25271100e-01 5.00000000e-01 -3.71956565e-02 -5.46677932e-02
3.26095194e-01 5.00000000e-01 -3.71835940e-02 -5.42514212e-02
3.26919317e-01 5.00000000e-01 -3.71715352e-02 -5.38259037e-02
3.27743411e-01 5.00000000e-01 -3.71594727e-02 -5.33924177e-02
3.28567565e-01 5.00000000e-01 -3.71467434e-02 -5.29552959e-02
3.29391628e-01 5.00000000e-01 -3.71338129e-02 -5.25190122e-02
3.30215722e-01 5.00000000e-01 -3.71208824e-02 -5.20897247e-02
3.31039786e-01 5.00000000e-01 -3.71079519e-02 -5.16703650e-02
3.31863850e-01 5.00000000e-01 -3.70944291e-02 -5.12598157e-02
3.32687914e-01 5.00000000e-01 -3.70808877e-02 -5.08515090e-02
3.33511978e-01 5.00000000e-01 -3.70673500e-02 -5.04380874e-02
3.34335953e-01 5.00000000e-01 -3.70536148e-02 -5.00144735e-02
3.35159987e-01 5.00000000e-01 -3.70389298e-02 -4.95786406e-02
3.35983992e-01 5.00000000e-01 -3.70242447e-02 -4.91373539e-02
3.36808026e-01 5.00000000e-01 -3.70095559e-02 -4.87016067e-02
3.37632000e-01 5.00000000e-01 -3.69947590e-02 -4.82836962e-02
3.38456005e-01 5.00000000e-01 -3.69797573e-02 -4.78921793e-02
3.39280009e-01 5.00000000e-01 -3.69647555e-02 -4.75302152e-02
3.40104014e-01 5.00000000e-01 -3.69497575e-02 -4.71943617e-02
3.40927839e-01 5.00000000e-01 -3.69342901e-02 -4.68770526e-02
3.41751814e-01 5.00000000e-01 -3.69184092e-02 -4.65672873e-02
3.42575788e-01 5.00000000e-01 -3.69025283e-02 -4.62558605e-02
3.43399763e-01 5.00000000e-01 -3.68866473e-02 -4.59340662e-02
3.44223469e-01 5.00000000e-01 -3.68701555e-02 -4.55941893e-02
3.45047414e-01 5.00000000e-01 -3.68534029e-02 -4.52271923e-02
3.45871359e-01 5.00000000e-01 -3.68366465e-02 -4.48272824e-02
3.46695304e-01 5.00000000e-01 -3.68198939e-02 -4.43947837e-02
3.47519010e-01 5.00000000e-01 -3.68026383e-02 -4.39436436e-02
3.48342925e-01 5.00000000e-01 -3.67852934e-02 -4.35044132e-02
3.49166840e-01 5.00000000e-01 -3.67679521e-02 -4.31215428e-02
3.49990517e-01 5.00000000e-01 -3.67506109e-02 -4.28362675e-02
3.50814402e-01 5.00000000e-01 -3.67326587e-02 -4.26627509e-02
3.51638287e-01 5.00000000e-01 -3.67147066e-02 -4.25712392e-02
3.52462173e-01 5.00000000e-01 -3.66967544e-02 -4.24872562e-02
3.52883100e-01 5.00000000e-01 -3.66875827e-02 -4.23604958e-02
3.53304446e-01 5.00000000e-01 -3.66782546e-02 -4.20529321e-02
3.54128271e-01 5.00000000e-01 -3.66594419e-02 -4.15684544e-02
3.54952127e-01 5.00000000e-01 -3.66406254e-02 -4.08761315e-02
3.55775982e-01 5.00000000e-01 -3.66218090e-02 -4.00458761e-02
3.56600076e-01 5.00000000e-01 -3.66028100e-02 -3.91725339e-02
3.57423902e-01 5.00000000e-01 -3.65833901e-02 -3.83371375e-02
3.58247727e-01 5.00000000e-01 -3.65639739e-02 -3.75907086e-02
3.59071523e-01 5.00000000e-01 -3.65445539e-02 -3.69474068e-02
3.59895617e-01 5.00000000e-01 -3.65247689e-02 -3.63968983e-02
3.60719383e-01 5.00000000e-01 -3.65044959e-02 -3.59153449e-02
3.61543179e-01 5.00000000e-01 -3.64842229e-02 -3.54817435e-02
3.62366945e-01 5.00000000e-01 -3.64639498e-02 -3.50785181e-02
3.63190800e-01 5.00000000e-01 -3.64434756e-02 -3.46919596e-02
3.64014566e-01 5.00000000e-01 -3.64228375e-02 -3.43084373e-02
3.64838332e-01 5.00000000e-01 -3.64021957e-02 -3.39148417e-02
3.65662098e-01 5.00000000e-01 -3.63815576e-02 -3.34985219e-02
3.66485953e-01 5.00000000e-01 -3.63602228e-02 -3.30516249e-02
3.67309660e-01 5.00000000e-01 -3.63385044e-02 -3.25710513e-02
3.68133366e-01 5.00000000e-01 -3.63167860e-02 -3.20649333e-02
3.68957072e-01 5.00000000e-01 -3.62950675e-02 -3.15476768e-02