#+++++++++++++++++++++++++++++++++++++++++++++++++++++++++++++++++++++++++++++++++++++++++++++++++++++++++++++++++++++++++++++++++
#
#   IPW-3 Cut/Slice DATA SUBMITTAL FORM for Test Case NACA0012_Cp_Conditions
#
#       NOMENCLATURE:
#                  X [m]:  X-coordinate of the surface (clean for reference)
#                  Y [m]:  Y-coordinate of the surface (clean for reference)
#                  Z [m]:  Z-coordinate of the surface (clean for reference)
#                  Cp [-]:  Pressure coefficient
#
#    FLOW CONDITIONS:
#                                   AOA: 4.0 deg
#                           Mach Number: 0.3114 [-]
#       Mean aerodynamic chord (M.A.C.): 0.5334 [m]
#                       Reynolds Number: 3.8441 million (based on MAC)
#                       Freestream Temp: 267.75 [K]
#                        Reference area: 0.97548 [m2]
#               Moment Reference Center: 0.13335, 0, 0 [m] (X, Y, Z)
#
#
#              NOTES: 1. Please use at least 5 decimal places in the numerical values
#                     2. If data are NOT provided, please fill data fields with a numerical value of "-999"
#
#+++++++++++++++++++++++++++++++++++++++++++++++++++++++++++++++++++++++++++++++++++++++++++++++++++++++++++++++++++++++++++++++++++
 VARIABLES = "X" "Y" "Z" "Cp"

 ZONE T="SLICE_Y_0p9144_CUTDATA"

1.88603029e-02 9.143999815E-01 -8.66183080e-03 4.72573698e-01
2.08494626e-02 9.143999815E-01 -9.53969359e-03 4.19025451e-01
2.36707982e-02 9.143999815E-01 -1.07062096e-02 3.71432036e-01
2.56656110e-02 9.143999815E-01 -1.14834402e-02 3.28637093e-01
2.76439358e-02 9.143999815E-01 -1.22193647e-02 2.91916519e-01
3.05676535e-02 9.143999815E-01 -1.32527128e-02 2.58887827e-01
3.35462093e-02 9.143999815E-01 -1.42421620e-02 2.30542555e-01
3.55251879e-02 9.143999815E-01 -1.48705049e-02 2.04652458e-01
3.74915153e-02 9.143999815E-01 -1.54739367e-02 1.81486696e-01
4.05164286e-02 9.143999815E-01 -1.63619220e-02 1.60408899e-01
4.35781814e-02 9.143999815E-01 -1.72172431e-02 1.41034216e-01
4.55295257e-02 9.143999815E-01 -1.77425332e-02 1.22983165e-01
4.74688783e-02 9.143999815E-01 -1.82470884e-02 1.06241889e-01
5.05599193e-02 9.143999815E-01 -1.90241970e-02 9.05376747e-02
5.36720678e-02 9.143999815E-01 -1.97727457e-02 7.60666132e-02
5.68049774e-02 9.143999815E-01 -2.04949211e-02 6.27291128e-02
5.99568002e-02 9.143999815E-01 -2.11908277e-02 5.04965968e-02
6.18770160e-02 9.143999815E-01 -2.16006003e-02 3.90790515e-02
6.37832954e-02 9.143999815E-01 -2.19975077e-02 2.87077762e-02
6.69457465e-02 9.143999815E-01 -2.26360355e-02 1.91909913e-02
7.01225326e-02 9.143999815E-01 -2.32530478e-02 1.06569556e-02
7.33126551e-02 9.143999815E-01 -2.38482468e-02 2.92480946e-03
7.65143931e-02 9.143999815E-01 -2.44243480e-02 -4.18420881e-03
7.83939585e-02 9.143999815E-01 -2.47524586e-02 -1.09510263e-02
8.02647993e-02 9.143999815E-01 -2.50713918e-02 -1.73468161e-02
8.34708288e-02 9.143999815E-01 -2.56018471e-02 -2.35047545e-02
8.66821855e-02 9.143999815E-01 -2.61140447e-02 -2.93115415e-02
8.99029225e-02 9.143999815E-01 -2.66095363e-02 -3.48429270e-02
9.31321979e-02 9.143999815E-01 -2.70891283e-02 -4.01582457e-02
9.63657275e-02 9.143999815E-01 -2.75518950e-02 -4.53393646e-02
9.82108116e-02 9.143999815E-01 -2.78085116e-02 -5.04122302e-02
1.00047939e-01 9.143999815E-01 -2.80585196e-02 -5.52664213e-02
1.03280500e-01 9.143999815E-01 -2.84859501e-02 -5.98040298e-02
1.06521532e-01 9.143999815E-01 -2.89003737e-02 -6.38707355e-02
1.09766006e-01 9.143999815E-01 -2.93003302e-02 -6.74981996e-02
1.13016263e-01 9.143999815E-01 -2.96872407e-02 -7.05366433e-02
1.16271354e-01 9.143999815E-01 -3.00597716e-02 -7.31101930e-02
1.19531751e-01 9.143999815E-01 -3.04205567e-02 -7.53970370e-02
1.22793876e-01 9.143999815E-01 -3.07678543e-02 -7.76457414e-02
1.26062259e-01 9.143999815E-01 -3.11040487e-02 -7.99940303e-02
1.27858535e-01 9.143999815E-01 -3.12844180e-02 -8.24767649e-02
1.29651114e-01 9.143999815E-01 -3.14596295e-02 -8.50469396e-02
1.32912591e-01 9.143999815E-01 -3.17693055e-02 -8.74899626e-02
1.36179537e-01 9.143999815E-01 -3.20696384e-02 -8.96787494e-02
1.39447525e-01 9.143999815E-01 -3.23584937e-02 -9.14670304e-02
1.42719865e-01 9.143999815E-01 -3.26368958e-02 -9.28130001e-02
1.45994186e-01 9.143999815E-01 -3.29052024e-02 -9.37295035e-02
1.49271265e-01 9.143999815E-01 -3.31627466e-02 -9.43070054e-02
1.52549908e-01 9.143999815E-01 -3.34121063e-02 -9.46520791e-02
1.55832157e-01 9.143999815E-01 -3.36513706e-02 -9.48856846e-02
1.59114540e-01 9.143999815E-01 -3.38809826e-02 -9.51424017e-02
1.62400976e-01 9.143999815E-01 -3.41027975e-02 -9.55413803e-02
1.65687054e-01 9.143999815E-01 -3.43145020e-02 -9.61760879e-02
1.68974429e-01 9.143999815E-01 -3.45180035e-02 -9.70645249e-02
1.70717135e-01 9.143999815E-01 -3.46226469e-02 -9.81235132e-02
1.72453910e-01 9.143999815E-01 -3.47251408e-02 -9.91990715e-02
1.75738364e-01 9.143999815E-01 -3.49108875e-02 -1.00088254e-01
1.79023296e-01 9.143999815E-01 -3.50897573e-02 -1.00634716e-01
1.82307452e-01 9.143999815E-01 -3.52607667e-02 -1.00762330e-01
1.85595229e-01 9.143999815E-01 -3.54235433e-02 -1.00497536e-01
1.88883275e-01 9.143999815E-01 -3.55793349e-02 -9.99369398e-02
1.92172751e-01 9.143999815E-01 -3.57281044e-02 -9.92029905e-02
1.95462257e-01 9.143999815E-01 -3.58696319e-02 -9.83980522e-02
1.98753297e-01 9.143999815E-01 -3.60047445e-02 -9.75803509e-02
2.02045053e-01 9.143999815E-01 -3.61329876e-02 -9.67704505e-02
2.05337524e-01 9.143999815E-01 -3.62544358e-02 -9.59666446e-02
2.08630755e-01 9.143999815E-01 -3.63697708e-02 -9.51639935e-02
2.11924598e-01 9.143999815E-01 -3.64781171e-02 -9.43598598e-02
2.15218887e-01 9.143999815E-01 -3.65805030e-02 -9.35595483e-02
2.18513727e-01 9.143999815E-01 -3.66771594e-02 -9.27687213e-02
2.21808866e-01 9.143999815E-01 -3.67684290e-02 -9.19866264e-02
2.25105554e-01 9.143999815E-01 -3.68529446e-02 -9.12081748e-02
2.28401601e-01 9.143999815E-01 -3.69315073e-02 -9.04157981e-02
2.31697917e-01 9.143999815E-01 -3.70053314e-02 -8.95953625e-02
2.34994829e-01 9.143999815E-01 -3.70737724e-02 -8.87327045e-02
2.38291725e-01 9.143999815E-01 -3.71371321e-02 -8.78167749e-02
2.41590306e-01 9.143999815E-01 -3.71946916e-02 -8.68466720e-02
2.44887724e-01 9.143999815E-01 -3.72472666e-02 -8.58219266e-02
2.48185694e-01 9.143999815E-01 -3.72950397e-02 -8.47542584e-02
2.51483500e-01 9.143999815E-01 -3.73376235e-02 -8.36533457e-02
2.54781425e-01 9.143999815E-01 -3.73758487e-02 -8.25271979e-02
2.58079499e-01 9.143999815E-01 -3.74097601e-02 -8.13769847e-02
2.61378080e-01 9.143999815E-01 -3.74384522e-02 -8.01985264e-02
2.64677703e-01 9.143999815E-01 -3.74624580e-02 -7.89861009e-02
2.67976075e-01 9.143999815E-01 -3.74821127e-02 -7.77335838e-02
2.71274477e-01 9.143999815E-01 -3.74976732e-02 -7.64470175e-02
2.74572969e-01 9.143999815E-01 -3.75091210e-02 -7.51371905e-02
2.77871847e-01 9.143999815E-01 -3.75159048e-02 -7.38173053e-02
2.81169981e-01 9.143999815E-01 -3.75187769e-02 -7.24944398e-02
2.84468442e-01 9.143999815E-01 -3.75180915e-02 -7.11702853e-02
2.87767351e-01 9.143999815E-01 -3.75125222e-02 -6.98358193e-02
2.91065365e-01 9.143999815E-01 -3.75038534e-02 -6.84739873e-02
2.94365138e-01 9.143999815E-01 -3.74910049e-02 -6.70739561e-02
2.97663450e-01 9.143999815E-01 -3.74742784e-02 -6.56219795e-02
3.00961375e-01 9.143999815E-01 -3.74539718e-02 -6.41201437e-02
3.04259926e-01 9.143999815E-01 -3.74302752e-02 -6.25799820e-02
3.07557702e-01 9.143999815E-01 -3.74024622e-02 -6.10148534e-02
3.10855687e-01 9.143999815E-01 -3.73715162e-02 -5.94437867e-02
3.14153612e-01 9.143999815E-01 -3.73368226e-02 -5.78808933e-02
3.17451090e-01 9.143999815E-01 -3.72990072e-02 -5.63344210e-02
3.20748776e-01 9.143999815E-01 -3.72578874e-02 -5.48080169e-02
3.24046314e-01 9.143999815E-01 -3.72130275e-02 -5.32959364e-02
3.27343404e-01 9.143999815E-01 -3.71653289e-02 -5.17857485e-02
3.30640674e-01 9.143999815E-01 -3.71142141e-02 -5.02620563e-02
3.33937526e-01 9.143999815E-01 -3.70603576e-02 -4.87046614e-02
3.37234706e-01 9.143999815E-01 -3.70019525e-02 -4.70991656e-02
3.40531737e-01 9.143999815E-01 -3.69419232e-02 -4.54347767e-02
3.43828261e-01 9.143999815E-01 -3.68781947e-02 -4.37107906e-02
3.47124398e-01 9.143999815E-01 -3.68109420e-02 -4.19373363e-02
3.50420415e-01 9.143999815E-01 -3.67412455e-02 -4.01318222e-02
3.53716373e-01 9.143999815E-01 -3.66688482e-02 -3.83125581e-02
3.57011974e-01 9.143999815E-01 -3.65930982e-02 -3.64951156e-02
3.60307515e-01 9.143999815E-01 -3.65146324e-02 -3.46843675e-02
3.63602698e-01 9.143999815E-01 -3.64331566e-02 -3.28767076e-02
3.66897821e-01 9.143999815E-01 -3.63493636e-02 -3.10678873e-02
3.70192617e-01 9.143999815E-01 -3.62620130e-02 -2.92425118e-02
3.73487234e-01 9.143999815E-01 -3.61724831e-02 -2.73934100e-02
3.76781553e-01 9.143999815E-01 -3.60794850e-02 -2.55110338e-02
3.80075783e-01 9.143999815E-01 -3.59837599e-02 -2.35882569e-02
3.83369625e-01 9.143999815E-01 -3.58858556e-02 -2.16248203e-02
3.86663318e-01 9.143999815E-01 -3.57848145e-02 -1.96134523e-02
3.89956772e-01 9.143999815E-01 -3.56812999e-02 -1.75483637e-02
3.93249810e-01 9.143999815E-01 -3.55749317e-02 -1.54218916e-02
3.96542937e-01 9.143999815E-01 -3.54659669e-02 -1.32264225e-02
3.99835408e-01 9.143999815E-01 -3.53546403e-02 -1.09694228e-02
4.03127521e-01 9.143999815E-01 -3.52399424e-02 -8.67003668e-03
4.06419933e-01 9.143999815E-01 -3.51226553e-02 -6.36438886e-03
4.09711838e-01 9.143999815E-01 -3.50034125e-02 -4.10051364e-03
4.13003027e-01 9.143999815E-01 -3.48813049e-02 -1.91360281e-03
4.16294247e-01 9.143999815E-01 -3.47561575e-02 1.93447195e-04
4.19585258e-01 9.143999815E-01 -3.46285254e-02 2.25598062e-03
4.21295792e-01 9.143999815E-01 -3.45614813e-02 4.31841752e-03
4.23007846e-01 9.143999815E-01 -3.44927609e-02 6.48694858e-03
4.26300317e-01 9.143999815E-01 -3.43595259e-02 8.80381744e-03
4.29593176e-01 9.143999815E-01 -3.42238322e-02 1.13215977e-02
4.32885349e-01 9.143999815E-01 -3.40851955e-02 1.40287997e-02
4.36177224e-01 9.143999815E-01 -3.39440890e-02 1.68811586e-02
4.39468771e-01 9.143999815E-01 -3.38004716e-02 1.98290441e-02
4.42760140e-01 9.143999815E-01 -3.36539224e-02 2.28346121e-02
4.46050763e-01 9.143999815E-01 -3.35047729e-02 2.58864164e-02
4.49341416e-01 9.143999815E-01 -3.33532952e-02 2.89856959e-02
4.52631473e-01 9.143999815E-01 -3.31986658e-02 3.21599096e-02
4.55921173e-01 9.143999815E-01 -3.30415815e-02 3.54394987e-02
4.59210485e-01 9.143999815E-01 -3.28816548e-02 3.88565809e-02
4.62499350e-01 9.143999815E-01 -3.27185802e-02 4.24400009e-02
4.65787858e-01 9.143999815E-01 -3.25530060e-02 4.61980552e-02
4.69075918e-01 9.143999815E-01 -3.23849060e-02 5.01177646e-02
4.72363591e-01 9.143999815E-01 -3.22142132e-02 5.41649871e-02
4.75650609e-01 9.143999815E-01 -3.20407488e-02 5.82942031e-02
4.78937358e-01 9.143999815E-01 -3.18640321e-02 6.24767467e-02
4.82223242e-01 9.143999815E-01 -3.16845737e-02 6.67140856e-02
4.85509068e-01 9.143999815E-01 -3.15016471e-02 7.10683242e-02
4.87244964e-01 9.143999815E-01 -3.14038694e-02 7.55604356e-02
4.88982171e-01 9.143999815E-01 -3.13055366e-02 8.04098099e-02
4.92269725e-01 9.143999815E-01 -3.11172735e-02 8.56771246e-02
4.95557189e-01 9.143999815E-01 -3.09261922e-02 9.15896967e-02
4.98843968e-01 9.143999815E-01 -3.07315271e-02 9.82884914e-02
5.02129614e-01 9.143999815E-01 -3.05335466e-02 1.05932929e-01
5.05415559e-01 9.143999815E-01 -3.03336866e-02 1.14671983e-01
5.08700192e-01 9.143999815E-01 -3.01293805e-02 1.24626555e-01
5.11984408e-01 9.143999815E-01 -2.99233217e-02 1.35682479e-01
5.15268326e-01 9.143999815E-01 -2.97126844e-02 1.47283733e-01
5.18551648e-01 9.143999815E-01 -2.94993781e-02 1.58385292e-01
5.21834373e-01 9.143999815E-01 -2.92833224e-02 1.67430863e-01
5.25116265e-01 9.143999815E-01 -2.90636718e-02 1.72747269e-01
5.28397501e-01 9.143999815E-01 -2.88404673e-02 1.73113525e-01
5.31678259e-01 9.143999815E-01 -2.86143776e-02 1.68256506e-01
5.32421529e-01 9.143999815E-01 -2.79570576e-02 1.27013668e-01
5.31610489e-01 9.143999815E-01 -2.70427447e-02 1.54438466e-01
5.28454661e-01 9.143999815E-01 -2.63753813e-02 1.51125297e-01
5.25296867e-01 9.143999815E-01 -2.57104970e-02 1.44077524e-01
5.22136867e-01 9.143999815E-01 -2.50486676e-02 1.33948669e-01
5.20227671e-01 9.143999815E-01 -2.46508755e-02 1.22003205e-01
5.18319368e-01 9.143999815E-01 -2.42540464e-02 1.09384105e-01
5.15158594e-01 9.143999815E-01 -2.35989615e-02 9.72063690e-02
5.11996090e-01 9.143999815E-01 -2.29464564e-02 8.59204680e-02
5.08831620e-01 9.143999815E-01 -2.22976636e-02 7.56914616e-02
5.05664766e-01 9.143999815E-01 -2.16502901e-02 6.64478391e-02
5.03759980e-01 9.143999815E-01 -2.12635547e-02 5.78002036e-02
5.01855791e-01 9.143999815E-01 -2.08773240e-02 4.96380180e-02
4.98688877e-01 9.143999815E-01 -2.02367529e-02 4.16599512e-02
4.95519906e-01 9.143999815E-01 -1.95992161e-02 3.38760838e-02
4.92349058e-01 9.143999815E-01 -1.89647954e-02 2.62619164e-02
4.89176661e-01 9.143999815E-01 -1.83327142e-02 1.88370440e-02
4.87275839e-01 9.143999815E-01 -1.79555155e-02 1.15540000e-02
4.85375732e-01 9.143999815E-01 -1.75789446e-02 4.47260682e-03
4.82203007e-01 9.143999815E-01 -1.69524383e-02 -2.47949758e-03
4.79028225e-01 9.143999815E-01 -1.63290128e-02 -9.27262474e-03
4.75851744e-01 9.143999815E-01 -1.57078616e-02 -1.59016959e-02
4.72673684e-01 9.143999815E-01 -1.50897568e-02 -2.23801248e-02
4.70777005e-01 9.143999815E-01 -1.47224404e-02 -2.87614949e-02
4.68881160e-01 9.143999815E-01 -1.43557526e-02 -3.50490511e-02
4.65702623e-01 9.143999815E-01 -1.37432059e-02 -4.13082465e-02
4.62522656e-01 9.143999815E-01 -1.31328655e-02 -4.75241132e-02
4.59341079e-01 9.143999815E-01 -1.25247408e-02 -5.36673889e-02
4.56157923e-01 9.143999815E-01 -1.19197294e-02 -5.97230271e-02
4.54265147e-01 9.143999815E-01 -1.15614766e-02 -6.56894147e-02
4.52373266e-01 9.143999815E-01 -1.12038348e-02 -7.15188831e-02
4.49189991e-01 9.143999815E-01 -1.06043285e-02 -7.72660524e-02
4.46004689e-01 9.143999815E-01 -1.00077661e-02 -8.29222128e-02
4.42818254e-01 9.143999815E-01 -9.41261370e-03 -8.84824395e-02
4.39630270e-01 9.143999815E-01 -8.82050209e-03 -9.39581767e-02
4.37741429e-01 9.143999815E-01 -8.47114902e-03 -9.93787423e-02
4.35853630e-01 9.143999815E-01 -8.12251773e-03 -1.04735285e-01
4.32665318e-01 9.143999815E-01 -7.53578357e-03 -1.10065438e-01
4.29475754e-01 9.143999815E-01 -6.95140986e-03 -1.15351967e-01
4.26284552e-01 9.143999815E-01 -6.36982359e-03 -1.20581247e-01
4.23092008e-01 9.143999815E-01 -5.78980800e-03 -1.25719592e-01
4.19898123e-01 9.143999815E-01 -5.21279732e-03 -1.30770877e-01
4.18013930e-01 9.143999815E-01 -4.87369345e-03 -1.35770708e-01
4.16130543e-01 9.143999815E-01 -4.53539193e-03 -1.40761152e-01
4.12936539e-01 9.143999815E-01 -3.96393286e-03 -1.45793468e-01
4.09740746e-01 9.143999815E-01 -3.39533086e-03 -1.50880903e-01
4.06543881e-01 9.143999815E-01 -2.82877474e-03 -1.55987144e-01
4.03345555e-01 9.143999815E-01 -2.26387149e-03 -1.61049515e-01
4.00145531e-01 9.143999815E-01 -1.70200493e-03 -1.66035891e-01
3.98266286e-01 9.143999815E-01 -1.37365947e-03 -1.70968399e-01
3.96387488e-01 9.143999815E-01 -1.04594999e-03 -1.75865844e-01
3.93187791e-01 9.143999815E-01 -4.89630853e-04 -1.80779696e-01
3.89986515e-01 9.143999815E-01 6.39530408e-05 -1.85726672e-01
3.86783987e-01 9.143999815E-01 6.15280762e-04 -1.90691486e-01
3.83579791e-01 9.143999815E-01 1.16409152e-03 -1.95645913e-01
3.81704599e-01 9.143999815E-01 1.48391142e-03 -2.00592756e-01
3.79829913e-01 9.143999815E-01 1.80296658e-03 -2.05530465e-01
3.76626253e-01 9.143999815E-01 2.34624278e-03 -2.10486233e-01
3.73420894e-01 9.143999815E-01 2.88637332e-03 -2.15477779e-01
3.70214105e-01 9.143999815E-01 3.42432060e-03 -2.20499352e-01
3.67005736e-01 9.143999815E-01 3.95945180e-03 -2.25512966e-01
3.63796562e-01 9.143999815E-01 4.49193595e-03 -2.30510563e-01
3.61926228e-01 9.143999815E-01 4.80135437e-03 -2.35482469e-01
3.60056907e-01 9.143999815E-01 5.10915182e-03 -2.40471989e-01
3.56847227e-01 9.143999815E-01 5.63581800e-03 -2.45494127e-01
3.53636414e-01 9.143999815E-01 6.15940383e-03 -2.50558495e-01
3.50424081e-01 9.143999815E-01 6.68051187e-03 -2.55635530e-01
3.47210616e-01 9.143999815E-01 7.19937589e-03 -2.60665923e-01
3.43995482e-01 9.143999815E-01 7.71511299e-03 -2.65602559e-01
3.42130631e-01 9.143999815E-01 8.01232737e-03 -2.70460576e-01
3.40267509e-01 9.143999815E-01 8.30875803e-03 -2.75279701e-01
3.37052852e-01 9.143999815E-01 8.81862547e-03 -2.80133784e-01
3.33835751e-01 9.143999815E-01 9.32443142e-03 -2.85081983e-01
3.30617517e-01 9.143999815E-01 9.82769113e-03 -2.90133119e-01
3.27397823e-01 9.143999815E-01 1.03277955e-02 -2.95263171e-01
3.24176699e-01 9.143999815E-01 1.08253304e-02 -3.00415814e-01
3.20953935e-01 9.143999815E-01 1.13194054e-02 -3.05558056e-01
3.19097072e-01 9.143999815E-01 1.16026951e-02 -3.10694694e-01
3.17240983e-01 9.143999815E-01 1.18845962e-02 -3.15858960e-01
3.14018726e-01 9.143999815E-01 1.23717031e-02 -3.21093351e-01
3.10794860e-01 9.143999815E-01 1.28553631e-02 -3.26426268e-01
3.07569593e-01 9.143999815E-01 1.33362142e-02 -3.31827939e-01
3.04342568e-01 9.143999815E-01 1.38130896e-02 -3.37223113e-01
3.01114440e-01 9.143999815E-01 1.42869065e-02 -3.42557013e-01
2.97884584e-01 9.143999815E-01 1.47573650e-02 -3.47802371e-01
2.96034813e-01 9.143999815E-01 1.50246825e-02 -3.52994114e-01
2.94187933e-01 9.143999815E-01 1.52907651e-02 -3.58234078e-01
2.90957600e-01 9.143999815E-01 1.57530177e-02 -3.63599181e-01
2.87726313e-01 9.143999815E-01 1.62119716e-02 -3.69121879e-01
2.84493118e-01 9.143999815E-01 1.66665297e-02 -3.74767303e-01
2.81258672e-01 9.143999815E-01 1.71178728e-02 -3.80438030e-01
2.78022230e-01 9.143999815E-01 1.75653361e-02 -3.86032939e-01
2.74784356e-01 9.143999815E-01 1.80084817e-02 -3.91527206e-01
2.72944689e-01 9.143999815E-01 1.82582643e-02 -3.96954268e-01
2.71108031e-01 9.143999815E-01 1.85067691e-02 -4.02434081e-01
2.67870188e-01 9.143999815E-01 1.89408790e-02 -4.08062249e-01
2.64630794e-01 9.143999815E-01 1.93709992e-02 -4.13904041e-01
2.61389822e-01 9.143999815E-01 1.97967310e-02 -4.19923067e-01
2.58147091e-01 9.143999815E-01 2.02177335e-02 -4.26026493e-01
2.54902840e-01 9.143999815E-01 2.06346437e-02 -4.32099402e-01
2.51657039e-01 9.143999815E-01 2.10474059e-02 -4.38077837e-01
2.49828786e-01 9.143999815E-01 2.12772097e-02 -4.43975210e-01
2.48004153e-01 9.143999815E-01 2.15053912e-02 -4.49888378e-01
2.44758338e-01 9.143999815E-01 2.19071973e-02 -4.55933362e-01
2.41511226e-01 9.143999815E-01 2.23042220e-02 -4.62201387e-01
2.38262117e-01 9.143999815E-01 2.26962324e-02 -4.68724370e-01
2.35011444e-01 9.143999815E-01 2.30830312e-02 -4.75441754e-01
2.31759086e-01 9.143999815E-01 2.34650020e-02 -4.82247502e-01
2.28503943e-01 9.143999815E-01 2.38419156e-02 -4.88992482e-01
2.25247338e-01 9.143999815E-01 2.42126826e-02 -4.95609462e-01
2.21989423e-01 9.143999815E-01 2.45778449e-02 -5.02065778e-01
2.20179543e-01 9.143999815E-01 2.47784927e-02 -5.08410096e-01
2.18371883e-01 9.143999815E-01 2.49767881e-02 -5.14779151e-01
2.15116650e-01 9.143999815E-01 2.53296979e-02 -5.21260738e-01
2.11857662e-01 9.143999815E-01 2.56760027e-02 -5.28002918e-01
2.08596781e-01 9.143999815E-01 2.60164328e-02 -5.35039544e-01
2.05334380e-01 9.143999815E-01 2.63509750e-02 -5.42335510e-01
2.02069610e-01 9.143999815E-01 2.66788732e-02 -5.49788594e-01
1.98803127e-01 9.143999815E-01 2.69992035e-02 -5.57320833e-01
1.95534810e-01 9.143999815E-01 2.73136366e-02 -5.64792097e-01
1.92265242e-01 9.143999815E-01 2.76218243e-02 -5.72136641e-01
1.88990578e-01 9.143999815E-01 2.79222745e-02 -5.79319060e-01
1.87208042e-01 9.143999815E-01 2.80827675e-02 -5.86457968e-01
1.85427979e-01 9.143999815E-01 2.82407366e-02 -5.93621075e-01
1.82158112e-01 9.143999815E-01 2.85252892e-02 -6.00952208e-01
1.78887859e-01 9.143999815E-01 2.88018566e-02 -6.08551562e-01
1.75614432e-01 9.143999815E-01 2.90705990e-02 -6.16502821e-01
1.72338828e-01 9.143999815E-01 2.93313228e-02 -6.24803186e-01
1.69062033e-01 9.143999815E-01 2.95842458e-02 -6.33375823e-01
1.65782824e-01 9.143999815E-01 2.98276804e-02 -6.42214239e-01
1.62502021e-01 9.143999815E-01 3.00627202e-02 -6.51233256e-01
1.59218356e-01 9.143999815E-01 3.02894898e-02 -6.60339177e-01
1.55933827e-01 9.143999815E-01 3.05053126e-02 -6.69504464e-01
1.52648270e-01 9.143999815E-01 3.07130497e-02 -6.78618252e-01
1.49358049e-01 9.143999815E-01 3.09104156e-02 -6.87555611e-01
1.46068662e-01 9.143999815E-01 3.10979076e-02 -6.96332812e-01
1.42774060e-01 9.143999815E-01 3.12747322e-02 -7.04917908e-01
1.41045377e-01 9.143999815E-01 3.13635431e-02 -7.13482678e-01
1.39320046e-01 9.143999815E-01 3.14481892e-02 -7.22059309e-01
1.36036411e-01 9.143999815E-01 3.16017121e-02 -7.30934560e-01
1.32748708e-01 9.143999815E-01 3.17447782e-02 -7.40316749e-01
1.29462570e-01 9.143999815E-01 3.18748914e-02 -7.50222444e-01
1.26172364e-01 9.143999815E-01 3.19933519e-02 -7.60708749e-01
1.22883491e-01 9.143999815E-01 3.20999473e-02 -7.71638095e-01
1.19590849e-01 9.143999815E-01 3.21930721e-02 -7.83006191e-01
1.16299726e-01 9.143999815E-01 3.22725922e-02 -7.94654787e-01
1.13005824e-01 9.143999815E-01 3.23385298e-02 -8.06634366e-01
1.09712720e-01 9.143999815E-01 3.23887318e-02 -8.18864584e-01
1.06419094e-01 9.143999815E-01 3.24253440e-02 -8.31395626e-01
1.03123754e-01 9.143999815E-01 3.24470028e-02 -8.44294608e-01
9.98299122e-02 9.143999815E-01 3.24510299e-02 -8.57486010e-01
9.65360030e-02 9.143999815E-01 3.24390493e-02 -8.71018529e-01
9.32406783e-02 9.143999815E-01 3.24102528e-02 -8.84910643e-01
8.99478868e-02 9.143999815E-01 3.23622711e-02 -8.99000347e-01
8.66563246e-02 9.143999815E-01 3.22956257e-02 -9.13283646e-01
8.33663866e-02 9.143999815E-01 3.22103389e-02 -9.27708864e-01
8.00786614e-02 9.143999815E-01 3.21032070e-02 -9.42240000e-01
7.67931119e-02 9.143999815E-01 3.19749489e-02 -9.56883371e-01
7.35115036e-02 9.143999815E-01 3.18251401e-02 -9.71663952e-01
7.02283159e-02 9.143999815E-01 3.16498168e-02 -9.86810386e-01
6.69539645e-02 9.143999815E-01 3.14502642e-02 -1.00236619e+00
6.52088672e-02 9.143999815E-01 3.13331038e-02 -1.01840520e+00
6.34457022e-02 9.143999815E-01 3.12065855e-02 -1.03557539e+00
6.01568520e-02 9.143999815E-01 3.09486091e-02 -1.05361009e+00
5.68749495e-02 9.143999815E-01 3.06598507e-02 -1.07295311e+00
5.36012612e-02 9.143999815E-01 3.03395540e-02 -1.09357309e+00
5.03377691e-02 9.143999815E-01 2.99860369e-02 -1.11544025e+00
4.70856540e-02 9.143999815E-01 2.95946468e-02 -1.13835740e+00
4.38489132e-02 9.143999815E-01 2.91643236e-02 -1.16289723e+00
4.06347700e-02 9.143999815E-01 2.86938138e-02 -1.18912172e+00
3.74367461e-02 9.143999815E-01 2.81755608e-02 -1.21801055e+00
3.55677083e-02 9.143999815E-01 2.78492644e-02 -1.24905634e+00
3.36759835e-02 9.143999815E-01 2.74988171e-02 -1.28376734e+00
3.04886233e-02 9.143999815E-01 2.68568024e-02 -1.32036459e+00
2.73449533e-02 9.143999815E-01 2.61553284e-02 -1.35888970e+00
2.42549703e-02 9.143999815E-01 2.53872648e-02 -1.39646852e+00
2.23106313e-02 9.143999815E-01 2.48581879e-02 -1.43150568e+00
2.03362703e-02 9.143999815E-01 2.42790747e-02 -1.45340931e+00
1.73236169e-02 9.143999815E-01 2.33008694e-02 -1.45815527e+00
1.44397011e-02 9.143999815E-01 2.22303066e-02 -1.43078828e+00
1.24680819e-02 9.143999815E-01 2.14035772e-02 -1.37568474e+00
1.04651842e-02 9.143999815E-01 2.04625558e-02 -1.26915848e+00
7.93555658e-03 9.143999815E-01 1.90777611e-02 -1.12491143e+00
6.06717309e-03 9.143999815E-01 1.78542975e-02 -9.35349524e-01
4.26998129e-03 9.143999815E-01 1.64200049e-02 -7.04017281e-01
2.66192365e-03 9.143999815E-01 1.47566544e-02 -4.63988125e-01
1.41024974e-03 9.143999815E-01 1.29288752e-02 -2.09525272e-01
6.54576928e-04 9.143999815E-01 1.11193759e-02 4.19948660e-02
3.17741389e-04 9.143999815E-01 8.30384158e-03 2.63542056e-01
5.99430758e-04 9.143999815E-01 6.51253341e-03 4.54100549e-01
1.44037802e-03 9.143999815E-01 4.37127054e-03 6.17517352e-01
3.00806388e-03 9.143999815E-01 2.01138831e-03 7.18196452e-01
4.53766528e-03 9.143999815E-01 3.32604570e-04 7.60551035e-01
6.22998737e-03 9.143999815E-01 -1.19539374e-03 7.78422832e-01
8.02494213e-03 9.143999815E-01 -2.58280127e-03 7.54996777e-01
1.02944663e-02 9.143999815E-01 -4.11814079e-03 7.14624405e-01
1.22495331e-02 9.143999815E-01 -5.29887807e-03 6.57605171e-01
1.42156482e-02 9.143999815E-01 -6.38524769e-03 5.94054222e-01
1.68498829e-02 9.143999815E-01 -7.72053562e-03 5.32109737e-01
1.88603029e-02 9.143999815E-01 -8.66183080e-03 4.72573698e-01
