#++++++++++++++++++++++++++++++++++++++++++++++++++++++++++++++++++++++++++++++++++++++++++++++++++++++++++++++++++++
#
#   IPW-3 Ice Shape DATA SUBMITTAL FORM for Test Case NACA0012_AE3932, May 18th 2026
#
#       NOMENCLATURE:
#             X_ICED [m]:  X-coordinate of the iced surface
#             Y_ICED [m]:  Y-coordinate of the iced surface
#             Z_ICED [m]:  Z-coordinate of the iced surface
#
#                XXmm:  Roughness height used for the case, in mm.
#                       In the zone name, use the format KS_XXmm.
#                       For example, if k_s = 1.5 mm, use KS_1p5mm. 
#                       For Variable roughness, use KS_VAR
#
#    FLOW CONDITIONS:
#                                   AOA: 4.0 deg
#                           Mach Number: 0.3151 [-]
#       Mean aerodynamic chord (M.A.C.): 0.5334 [m]
#                       Reynolds Number: 3.9795 million (based on MAC)
#                       Freestream Temp: 267.55 [K]
#                        Reference area: 0.97548 [m2]
#               Moment Reference Center: 0.13335, 0, 0 [m] (X, Y, Z)
#
#    ICING CONDITIONS:
#                           Icing Time: 420 [s]
#                                  LWC: 0.55 [g/m3]
#                                  MVD: 20 [μm]
#
#              NOTES: 1. Please use at least 5 decimal places in the numerical values
#                     2. If data are NOT provided, please fill data fields with a numerical value of "-999" 
#
#++++++++++++++++++++++++++++++++++++++++++++++++++++++++++++++++++++++++++++++++++++++++++++++++++++++++++++++++++++

AUXDATA NUM_LAYERS  = "insert the number of total ice layers"
                                              
VARIABLES = "X_ICED" "Y_ICED" "Z_ICED"

ZONE T="SLICE_Y_0p9144_BINS01_KS_0p1mm_SINGLE_LAYER"
 5.324723721E-01 9.143999815E-01 -2.723562904E-02
 5.317667127E-01 9.143999815E-01 -2.708593383E-02
 5.317667127E-01 9.143999815E-01 -2.708593383E-02
 5.306376219E-01 9.143999815E-01 -2.684669197E-02
 5.306376219E-01 9.143999815E-01 -2.684669197E-02
 5.288308859E-01 9.143999815E-01 -2.646473981E-02
 5.288308859E-01 9.143999815E-01 -2.646473981E-02
 5.259396434E-01 9.143999815E-01 -2.585575357E-02
 5.259396434E-01 9.143999815E-01 -2.585575171E-02
 5.213124752E-01 9.143999815E-01 -2.488694154E-02
 5.213124752E-01 9.143999815E-01 -2.488693967E-02
 5.139061213E-01 9.143999815E-01 -2.335049585E-02
 5.139061213E-01 9.143999815E-01 -2.335049212E-02
 5.057663321E-01 9.143999815E-01 -2.168183029E-02
 5.057663321E-01 9.143999815E-01 -2.168182842E-02
 4.976226091E-01 9.143999815E-01 -2.003249340E-02
 4.976225793E-01 9.143999815E-01 -2.003248967E-02
 4.894750118E-01 9.143999815E-01 -1.840214431E-02
 4.894749820E-01 9.143999815E-01 -1.840214059E-02
 4.813237488E-01 9.143999815E-01 -1.679023728E-02
 4.813237488E-01 9.143999815E-01 -1.679023355E-02
 4.731689990E-01 9.143999815E-01 -1.519634575E-02
 4.731689692E-01 9.143999815E-01 -1.519634109E-02
 4.650107622E-01 9.143999815E-01 -1.362020988E-02
 4.650107324E-01 9.143999815E-01 -1.362020522E-02
 4.568491578E-01 9.143999815E-01 -1.206147578E-02
 4.568491578E-01 9.143999815E-01 -1.206147298E-02
 4.486843348E-01 9.143999815E-01 -1.051990967E-02
 4.486843050E-01 9.143999815E-01 -1.051990502E-02
 4.405162930E-01 9.143999815E-01 -8.995233104E-03
 4.405162930E-01 9.143999815E-01 -8.995231241E-03
 4.323452115E-01 9.143999815E-01 -7.487340830E-03
 4.323451817E-01 9.143999815E-01 -7.487337105E-03
 4.241710007E-01 9.143999815E-01 -5.996137392E-03
 4.241709709E-01 9.143999815E-01 -5.996132270E-03
 4.159938097E-01 9.143999815E-01 -4.521594848E-03
 4.159937799E-01 9.143999815E-01 -4.521590658E-03
 4.078136086E-01 9.143999815E-01 -3.063648008E-03
 4.078135788E-01 9.143999815E-01 -3.063644050E-03
 3.996304274E-01 9.143999815E-01 -1.622411073E-03
 3.996304274E-01 9.143999815E-01 -1.622409211E-03
 3.914443254E-01 9.143999815E-01 -1.980532106E-04
 3.914443254E-01 9.143999815E-01 -1.980513480E-04
 3.832553327E-01 9.143999815E-01 1.209354610E-03
 3.832553029E-01 9.143999815E-01 1.209358568E-03
 3.750633597E-01 9.143999815E-01 2.599547384E-03
 3.750633299E-01 9.143999815E-01 2.599551110E-03
 3.668683767E-01 9.143999815E-01 3.972085658E-03
 3.668683767E-01 9.143999815E-01 3.972087521E-03
 3.586705029E-01 9.143999815E-01 5.326793529E-03
 3.586704731E-01 9.143999815E-01 5.326797254E-03
 3.504695892E-01 9.143999815E-01 6.663271226E-03
 3.504695594E-01 9.143999815E-01 6.663274951E-03
 3.422656059E-01 9.143999815E-01 7.980862632E-03
 3.422656059E-01 9.143999815E-01 7.980864495E-03
 3.340585530E-01 9.143999815E-01 9.279062971E-03
 3.340585530E-01 9.143999815E-01 9.279064834E-03
 3.258484006E-01 9.143999815E-01 1.055725105E-02
 3.258483708E-01 9.143999815E-01 1.055725291E-02
 3.176349998E-01 9.143999815E-01 1.181472838E-02
 3.176349699E-01 9.143999815E-01 1.181473304E-02
 3.094183207E-01 9.143999815E-01 1.305074152E-02
 3.094183207E-01 9.143999815E-01 1.305074338E-02
 3.011983335E-01 9.143999815E-01 1.426441129E-02
 3.011983335E-01 9.143999815E-01 1.426441316E-02
 2.929749489E-01 9.143999815E-01 1.545481663E-02
 2.929749489E-01 9.143999815E-01 1.545481849E-02
 2.847481072E-01 9.143999815E-01 1.662091725E-02
 2.847481072E-01 9.143999815E-01 1.662091911E-02
 2.765177190E-01 9.143999815E-01 1.776162162E-02
 2.765176892E-01 9.143999815E-01 1.776162535E-02
 2.682836056E-01 9.143999815E-01 1.887570322E-02
 2.682836056E-01 9.143999815E-01 1.887570508E-02
 2.600458264E-01 9.143999815E-01 1.996186003E-02
 2.600458264E-01 9.143999815E-01 1.996186189E-02
 2.518042326E-01 9.143999815E-01 2.101863362E-02
 2.518042028E-01 9.143999815E-01 2.101863548E-02
 2.435587049E-01 9.143999815E-01 2.204455622E-02
 2.435586900E-01 9.143999815E-01 2.204455808E-02
 2.353092134E-01 9.143999815E-01 2.303793468E-02
 2.353091836E-01 9.143999815E-01 2.303793654E-02
 2.270556390E-01 9.143999815E-01 2.399702743E-02
 2.270556241E-01 9.143999815E-01 2.399702929E-02
 2.187979519E-01 9.143999815E-01 2.491986938E-02
 2.187979370E-01 9.143999815E-01 2.491987124E-02
 2.105360925E-01 9.143999815E-01 2.580442838E-02
 2.105360627E-01 9.143999815E-01 2.580443025E-02
 2.022699714E-01 9.143999815E-01 2.664833143E-02
 2.022699416E-01 9.143999815E-01 2.664833330E-02
 1.939995438E-01 9.143999815E-01 2.744922228E-02
 1.939995289E-01 9.143999815E-01 2.744922414E-02
 1.857248694E-01 9.143999815E-01 2.820446528E-02
 1.857248396E-01 9.143999815E-01 2.820446715E-02
 1.776592582E-01 9.143999815E-01 2.889362536E-02
 1.776592433E-01 9.143999815E-01 2.889362723E-02
 1.699739993E-01 9.143999815E-01 2.950436808E-02
 1.699739844E-01 9.143999815E-01 2.950436808E-02
 1.626513451E-01 9.143999815E-01 3.004222549E-02
 1.626513302E-01 9.143999815E-01 3.004222736E-02
 1.556744277E-01 9.143999815E-01 3.051230870E-02
 1.556744128E-01 9.143999815E-01 3.051230870E-02
 1.490271389E-01 9.143999815E-01 3.091955557E-02
 1.490271240E-01 9.143999815E-01 3.091955744E-02
 1.426941156E-01 9.143999815E-01 3.126847744E-02
 1.426941007E-01 9.143999815E-01 3.126847744E-02
 1.366607398E-01 9.143999815E-01 3.156361356E-02
 1.366607249E-01 9.143999815E-01 3.156361729E-02
 1.309130192E-01 9.143999815E-01 3.180893138E-02
 1.309130043E-01 9.143999815E-01 3.180893511E-02
 1.254376620E-01 9.143999815E-01 3.200848401E-02
 1.254376471E-01 9.143999815E-01 3.200848401E-02
 1.202219501E-01 9.143999815E-01 3.216591105E-02
 1.202219352E-01 9.143999815E-01 3.216591105E-02
 1.152537614E-01 9.143999815E-01 3.228462487E-02
 1.152537465E-01 9.143999815E-01 3.228462487E-02
 1.105215326E-01 9.143999815E-01 3.236804903E-02
 1.105215177E-01 9.143999815E-01 3.236804903E-02
 1.060142368E-01 9.143999815E-01 3.241894394E-02
 1.060142219E-01 9.143999815E-01 3.241894394E-02
 1.017213464E-01 9.143999815E-01 3.244039416E-02
 1.017213389E-01 9.143999815E-01 3.244039416E-02
 9.763284028E-02 9.143999815E-01 3.243505955E-02
 9.763283283E-02 9.143999815E-01 3.243505955E-02
 9.373912960E-02 9.143999815E-01 3.240542859E-02
 9.373912215E-02 9.143999815E-01 3.240542859E-02
 9.003109485E-02 9.143999815E-01 3.235390410E-02
 9.003108740E-02 9.143999815E-01 3.235390410E-02
 9.003107250E-02 9.143999815E-01 3.235390410E-02
 8.618348092E-02 9.143999815E-01 3.227499872E-02
 8.233653754E-02 9.143999815E-01 3.216897696E-02
 8.233653009E-02 9.143999815E-01 3.216897696E-02
 7.849048823E-02 9.143999815E-01 3.203428909E-02
 7.849047333E-02 9.143999815E-01 3.203428909E-02
 7.464560866E-02 9.143999815E-01 3.186921030E-02
 7.464560121E-02 9.143999815E-01 3.186921030E-02
 7.080224901E-02 9.143999815E-01 3.167203814E-02
 7.080224156E-02 9.143999815E-01 3.167203814E-02
 6.696080416E-02 9.143999815E-01 3.144055605E-02
 6.696079671E-02 9.143999815E-01 3.144055605E-02
 6.312174350E-02 9.143999815E-01 3.117242828E-02
 6.312173605E-02 9.143999815E-01 3.117242642E-02
 5.928562209E-02 9.143999815E-01 3.086514026E-02
 5.928561091E-02 9.143999815E-01 3.086513840E-02
 5.545312911E-02 9.143999815E-01 3.051543608E-02
 5.545311794E-02 9.143999815E-01 3.051543422E-02
 5.162509903E-02 9.143999815E-01 3.011988290E-02
 5.162508786E-02 9.143999815E-01 3.011988290E-02
 4.780254513E-02 9.143999815E-01 2.967445925E-02
 4.780253768E-02 9.143999815E-01 2.967445739E-02
 4.398681223E-02 9.143999815E-01 2.917403169E-02
 4.398680106E-02 9.143999815E-01 2.917402983E-02
 4.017947614E-02 9.143999815E-01 2.861318924E-02
 4.017946869E-02 9.143999815E-01 2.861318737E-02
 3.638276458E-02 9.143999815E-01 2.798450924E-02
 3.638275340E-02 9.143999815E-01 2.798450924E-02
 3.259945288E-02 9.143999815E-01 2.727964148E-02
 3.259944171E-02 9.143999815E-01 2.727963962E-02
 2.883346006E-02 9.143999815E-01 2.648743987E-02
 2.883345075E-02 9.143999815E-01 2.648743801E-02
 2.509017661E-02 9.143999815E-01 2.559407242E-02
 2.509016544E-02 9.143999815E-01 2.559407055E-02
 2.137754485E-02 9.143999815E-01 2.458082698E-02
 2.137753554E-02 9.143999815E-01 2.458082326E-02
 1.770718768E-02 9.143999815E-01 2.342371456E-02
 1.770717837E-02 9.143999815E-01 2.342371084E-02
 1.409924030E-02 9.143999815E-01 2.208461426E-02
 1.409923099E-02 9.143999815E-01 2.208461054E-02
 1.058535371E-02 9.143999815E-01 2.051510289E-02
 1.058534533E-02 9.143999815E-01 2.051509917E-02
 5.828560330E-03 9.143999815E-01 2.081504278E-02
 5.828510039E-03 9.143999815E-01 2.081504464E-02
 5.319577642E-03 9.143999815E-01 2.118514664E-02
 -6.599609274E-03 9.143999815E-01 2.985291928E-02
 -6.600501947E-03 9.143999815E-01 2.985187434E-02
 -1.013715100E-02 9.143999815E-01 2.570968121E-02
 -1.013740618E-02 9.143999815E-01 2.570881508E-02
 -1.077855937E-02 9.143999815E-01 2.356516942E-02
 -1.173299830E-02 9.143999815E-01 2.037410066E-02
 -1.173336990E-02 9.143999815E-01 2.037279308E-02
 -1.131525543E-02 9.143999815E-01 1.492572110E-02
 -1.131524518E-02 9.143999815E-01 1.492557488E-02
 -8.724900894E-03 9.143999815E-01 9.932356887E-03
 -8.724893443E-03 9.143999815E-01 9.932343848E-03
 -8.570558392E-03 9.143999815E-01 9.705113247E-03
 -6.238841452E-03 9.143999815E-01 6.272053812E-03
 -6.238746922E-03 9.143999815E-01 6.271947641E-03
 -5.527478177E-03 9.143999815E-01 5.415223073E-03
 -3.963716328E-03 9.143999815E-01 3.531658091E-03
 -3.963513300E-03 9.143999815E-01 3.531425493E-03
 -2.733728848E-03 9.143999815E-01 1.957221422E-03
 -1.935820444E-03 9.143999815E-01 9.358457173E-04
 -1.935722772E-03 9.143999815E-01 9.356820956E-04
 -1.727324125E-04 9.143999815E-01 -2.046380658E-03
 -1.727058407E-04 9.143999815E-01 -2.046433045E-03
 4.759568255E-04 9.143999815E-01 -3.332821187E-03
 1.746868948E-03 9.143999815E-01 -5.853213836E-03
 1.746921218E-03 9.143999815E-01 -5.853317678E-03
 4.272513092E-03 9.143999815E-01 -1.016063523E-02
 4.272849765E-03 9.143999815E-01 -1.016121544E-02
 5.738233682E-03 9.143999815E-01 -1.171488967E-02
 7.507217117E-03 9.143999815E-01 -1.359045412E-02
 7.507810835E-03 9.143999815E-01 -1.359085739E-02
 1.117888000E-02 9.143999815E-01 -1.609364338E-02
 1.117982622E-02 9.143999815E-01 -1.609410159E-02
 1.505700126E-02 9.143999815E-01 -1.797969081E-02
 1.505767275E-02 9.143999815E-01 -1.797994040E-02
 1.901330426E-02 9.143999815E-01 -1.946058869E-02
 1.901411265E-02 9.143999815E-01 -1.946082525E-02
 2.301952988E-02 9.143999815E-01 -2.062246762E-02
 2.302039042E-02 9.143999815E-01 -2.062190510E-02
 2.865618467E-02 9.143999815E-01 -1.688813046E-02
 2.865657397E-02 9.143999815E-01 -1.688816212E-02
 3.267632797E-02 9.143999815E-01 -1.730948873E-02
 3.267647699E-02 9.143999815E-01 -1.730951481E-02
 3.528981656E-02 9.143999815E-01 -1.775459200E-02
 3.657731786E-02 9.143999815E-01 -1.797386445E-02
 3.657739237E-02 9.143999815E-01 -1.797387563E-02
 4.046352580E-02 9.143999815E-01 -1.860816218E-02
 4.046356678E-02 9.143999815E-01 -1.860816777E-02
 4.434048012E-02 9.143999815E-01 -1.920629479E-02
 4.434052110E-02 9.143999815E-01 -1.920630038E-02
 4.821468517E-02 9.143999815E-01 -1.975906081E-02
 4.821469262E-02 9.143999815E-01 -1.975906268E-02
 5.207544938E-02 9.143999815E-01 -2.031138539E-02
 5.207546055E-02 9.143999815E-01 -2.031138726E-02
 5.592944846E-02 9.143999815E-01 -2.085141838E-02
 5.592945963E-02 9.143999815E-01 -2.085142024E-02
 5.977407098E-02 9.143999815E-01 -2.139689401E-02
 5.977407843E-02 9.143999815E-01 -2.139689401E-02
 6.360470504E-02 9.143999815E-01 -2.198144048E-02
 6.360471994E-02 9.143999815E-01 -2.198144048E-02
 6.739774346E-02 9.143999815E-01 -2.273671702E-02
 6.739775836E-02 9.143999815E-01 -2.273671888E-02
 7.119563222E-02 9.143999815E-01 -2.346698195E-02
 7.119563967E-02 9.143999815E-01 -2.346698381E-02
 7.499947399E-02 9.143999815E-01 -2.416554466E-02
 7.499948144E-02 9.143999815E-01 -2.416554652E-02
 7.880869508E-02 9.143999815E-01 -2.483411133E-02
 7.880870253E-02 9.143999815E-01 -2.483411320E-02
 8.262278885E-02 9.143999815E-01 -2.547433041E-02
 8.262279630E-02 9.143999815E-01 -2.547433227E-02
 8.644130081E-02 9.143999815E-01 -2.608767338E-02
 8.644130826E-02 9.143999815E-01 -2.608767524E-02
 9.020702541E-02 9.143999815E-01 -2.666682564E-02
 9.020703286E-02 9.143999815E-01 -2.666682564E-02
 9.020704031E-02 9.143999815E-01 -2.666682564E-02
 9.416487068E-02 9.143999815E-01 -2.724953555E-02
 9.416487813E-02 9.143999815E-01 -2.724953555E-02
 9.832443297E-02 9.143999815E-01 -2.783469670E-02
 9.832444787E-02 9.143999815E-01 -2.783469856E-02
 1.026958302E-01 9.143999815E-01 -2.842111140E-02
 1.026958376E-01 9.143999815E-01 -2.842111140E-02
 1.072896570E-01 9.143999815E-01 -2.900733612E-02
 1.072896719E-01 9.143999815E-01 -2.900733612E-02
 1.121169925E-01 9.143999815E-01 -2.959212661E-02
 1.121170074E-01 9.143999815E-01 -2.959212847E-02
 1.171895340E-01 9.143999815E-01 -3.017365932E-02
 1.171895489E-01 9.143999815E-01 -3.017365932E-02
 1.225194633E-01 9.143999815E-01 -3.075045161E-02
 1.225194782E-01 9.143999815E-01 -3.075045347E-02
 1.281196326E-01 9.143999815E-01 -3.132049739E-02
 1.281196475E-01 9.143999815E-01 -3.132049739E-02
 1.340034604E-01 9.143999815E-01 -3.188199550E-02
 1.340034753E-01 9.143999815E-01 -3.188199550E-02
 1.401850581E-01 9.143999815E-01 -3.243275359E-02
 1.401850730E-01 9.143999815E-01 -3.243275359E-02
 1.466792226E-01 9.143999815E-01 -3.297059610E-02
 1.466792375E-01 9.143999815E-01 -3.297059610E-02
 1.535014510E-01 9.143999815E-01 -3.349309415E-02
 1.535014659E-01 9.143999815E-01 -3.349309415E-02
 1.606680304E-01 9.143999815E-01 -3.399769217E-02
 1.606680453E-01 9.143999815E-01 -3.399769217E-02
 1.681960374E-01 9.143999815E-01 -3.448174894E-02
 1.681960672E-01 9.143999815E-01 -3.448175266E-02
 1.761033386E-01 9.143999815E-01 -3.494232148E-02
 1.761033535E-01 9.143999815E-01 -3.494232148E-02
 1.843252182E-01 9.143999815E-01 -3.537230939E-02
 1.843252480E-01 9.143999815E-01 -3.537230939E-02
 1.925494075E-01 9.143999815E-01 -3.575561941E-02
 1.925494373E-01 9.143999815E-01 -3.575561941E-02
 2.007755190E-01 9.143999815E-01 -3.609488532E-02
 2.007755339E-01 9.143999815E-01 -3.609488532E-02
 2.090032548E-01 9.143999815E-01 -3.639259562E-02
 2.090032697E-01 9.143999815E-01 -3.639259562E-02
 2.172323018E-01 9.143999815E-01 -3.665103018E-02
 2.172323316E-01 9.143999815E-01 -3.665103018E-02
 2.254624516E-01 9.143999815E-01 -3.687231615E-02
 2.254624665E-01 9.143999815E-01 -3.687231615E-02
 2.336934507E-01 9.143999815E-01 -3.705841303E-02
 2.336934805E-01 9.143999815E-01 -3.705841303E-02
 2.419251502E-01 9.143999815E-01 -3.721115738E-02
 2.419251651E-01 9.143999815E-01 -3.721115738E-02
 2.501573563E-01 9.143999815E-01 -3.733224422E-02
 2.501573861E-01 9.143999815E-01 -3.733224422E-02
 2.583899796E-01 9.143999815E-01 -3.742324188E-02
 2.583900094E-01 9.143999815E-01 -3.742324188E-02
 2.666228414E-01 9.143999815E-01 -3.748559579E-02
 2.666228712E-01 9.143999815E-01 -3.748559579E-02
 2.748558819E-01 9.143999815E-01 -3.752065077E-02
 2.748559117E-01 9.143999815E-01 -3.752065077E-02
 2.830890119E-01 9.143999815E-01 -3.752960637E-02
 2.830890417E-01 9.143999815E-01 -3.752960637E-02
 2.913221121E-01 9.143999815E-01 -3.751366958E-02
 2.913221419E-01 9.143999815E-01 -3.751366958E-02
 2.995551229E-01 9.143999815E-01 -3.747390211E-02
 2.995551229E-01 9.143999815E-01 -3.747389838E-02
 3.077879846E-01 9.143999815E-01 -3.741127253E-02
 3.077880144E-01 9.143999815E-01 -3.741127253E-02
 3.160206676E-01 9.143999815E-01 -3.732666746E-02
 3.160206974E-01 9.143999815E-01 -3.732666746E-02
 3.242531121E-01 9.143999815E-01 -3.722090647E-02
 3.242531419E-01 9.143999815E-01 -3.722090647E-02
 3.324852288E-01 9.143999815E-01 -3.709473461E-02
 3.324852288E-01 9.143999815E-01 -3.709473088E-02
 3.407170475E-01 9.143999815E-01 -3.694881871E-02
 3.407170773E-01 9.143999815E-01 -3.694881871E-02
 3.489485085E-01 9.143999815E-01 -3.678376600E-02
 3.489485383E-01 9.143999815E-01 -3.678376600E-02
 3.571795821E-01 9.143999815E-01 -3.660004213E-02
 3.571796119E-01 9.143999815E-01 -3.660004213E-02
 3.654102087E-01 9.143999815E-01 -3.639815375E-02
 3.654102385E-01 9.143999815E-01 -3.639815375E-02
 3.736403883E-01 9.143999815E-01 -3.617855906E-02
 3.736404181E-01 9.143999815E-01 -3.617855906E-02
 3.818700910E-01 9.143999815E-01 -3.594164178E-02
 3.818701208E-01 9.143999815E-01 -3.594164178E-02
 3.900992870E-01 9.143999815E-01 -3.568748385E-02
 3.900992870E-01 9.143999815E-01 -3.568748012E-02
 3.983279467E-01 9.143999815E-01 -3.541647643E-02
 3.983279467E-01 9.143999815E-01 -3.541647643E-02
 4.065560102E-01 9.143999815E-01 -3.512870148E-02
 4.065560102E-01 9.143999815E-01 -3.512870148E-02
 4.147835076E-01 9.143999815E-01 -3.482438251E-02
 4.147835076E-01 9.143999815E-01 -3.482437879E-02
 4.230103493E-01 9.143999815E-01 -3.450333700E-02
 4.230103791E-01 9.143999815E-01 -3.450333700E-02
 4.312365353E-01 9.143999815E-01 -3.416575119E-02
 4.312365651E-01 9.143999815E-01 -3.416575119E-02
 4.394620359E-01 9.143999815E-01 -3.381155431E-02
 4.394620657E-01 9.143999815E-01 -3.381155431E-02
 4.476867914E-01 9.143999815E-01 -3.344063088E-02
 4.476867914E-01 9.143999815E-01 -3.344063088E-02
 4.559107721E-01 9.143999815E-01 -3.305267543E-02
 4.559108019E-01 9.143999815E-01 -3.305267543E-02
 4.641338885E-01 9.143999815E-01 -3.264768794E-02
 4.641339183E-01 9.143999815E-01 -3.264768794E-02
 4.723561704E-01 9.143999815E-01 -3.222529218E-02
 4.723562002E-01 9.143999815E-01 -3.222529218E-02
 4.805774987E-01 9.143999815E-01 -3.178517893E-02
 4.805775285E-01 9.143999815E-01 -3.178517893E-02
 4.887978733E-01 9.143999815E-01 -3.132702783E-02
 4.887979031E-01 9.143999815E-01 -3.132702783E-02
 4.970171750E-01 9.143999815E-01 -3.085045516E-02
 4.970171750E-01 9.143999815E-01 -3.085045330E-02
 5.052353740E-01 9.143999815E-01 -3.035483323E-02
 5.052354336E-01 9.143999815E-01 -3.035483509E-02
 5.134523511E-01 9.143999815E-01 -2.983992919E-02
 5.134523511E-01 9.143999815E-01 -2.983992547E-02
 5.210004449E-01 9.143999815E-01 -2.934918925E-02
 5.210004449E-01 9.143999815E-01 -2.934918925E-02
 5.257173777E-01 9.143999815E-01 -2.903378755E-02
 5.257173777E-01 9.143999815E-01 -2.903378755E-02
 5.286652446E-01 9.143999815E-01 -2.883310802E-02
 5.286652446E-01 9.143999815E-01 -2.883310802E-02
 5.305075645E-01 9.143999815E-01 -2.870632336E-02
 5.305075645E-01 9.143999815E-01 -2.870632336E-02
 5.316590071E-01 9.143999815E-01 -2.862655558E-02
 5.316590071E-01 9.143999815E-01 -2.862655558E-02
 5.323786139E-01 9.143999815E-01 -2.857652307E-02