#+++++++++++++++++++++++++++++++++++++++++++++++++++++++++++++++++++++++++++++++++++++++++++++++++++++++++++++++++++++++++++++++++
#
#   IPW-3 Final Ice Shape DATA SUBMITTAL FORM for Test Case NACA0012_AE3933, May 18th 2026
#
#       NOMENCLATURE:
#             X_ICED [m]:  X-coordinate of the iced surface
#             Y_ICED [m]:  Y-coordinate of the iced surface
#             Z_ICED [m]:  Z-coordinate of the iced surface
#
#                XXmm:  Roughness height used for the case, in mm.
#                       In the zone name, use the format KS_XXmm.
#                       For example, if k_s = 1.5 mm, use KS_1p5mm. 
#                       For Variable roughness, use KS_VAR
#
#    FLOW CONDITIONS:
#                                   AOA: 4.0 deg
#                           Mach Number: 0.3127 [-]
#       Mean aerodynamic chord (M.A.C.): 0.5334 [m]
#                       Reynolds Number: 3.8947 million (based on MAC)
#                       Freestream Temp: 270.95 [K]
#                        Reference area: 0.97548 [m2]
#               Moment Reference Center: 0.13335, 0, 0 [m] (X, Y, Z)
#
#    ICING CONDITIONS:
#                           Icing Time: 420 [s]
#                                  LWC: 0.55 [g/m3]
#                                  MVD: 20 [μm]
#
#              NOTES: 1. Please use at least 5 decimal places in the numerical values
#                     2. If data are NOT provided, please fill data fields with a numerical value of "-999" 
#
#++++++++++++++++++++++++++++++++++++++++++++++++++++++++++++++++++++++++++++++++++++++++++++++++++++++++++++++++++++

AUXDATA NUM_LAYERS  = "insert the number of total ice layers"
                                              
VARIABLES = "X_ICED" "Y_ICED" "Z_ICED"

ZONE T="SLICE_Y_0p9144_BINS01_KS_XXmm_SINGLE_LAYER"
-999 -999 -999

ZONE T="SLICE_Y_0p9144_BINS03_KS_XXmm_SINGLE_LAYER"
-999 -999 -999

ZONE T="SLICE_Y_0p9144_BINS07_KS_XXmm_SINGLE_LAYER"
-999 -999 -999

ZONE T="SLICE_Y_0p9144_BINS15_KS_XXmm_SINGLE_LAYER"
 5.324723849E+02 9.144000000E+02 -2.723562889E+01
 5.324723849E+02 9.144000000E+02 -2.723562928E+01
 5.324661304E+02 9.144000000E+02 -2.732502155E+01
 5.324598755E+02 9.144000000E+02 -2.741441380E+01
 5.324598754E+02 9.144000000E+02 -2.741441418E+01
 5.324536205E+02 9.144000000E+02 -2.750380643E+01
 5.324536204E+02 9.144000000E+02 -2.750380682E+01
 5.324473655E+02 9.144000000E+02 -2.759319906E+01
 5.324473655E+02 9.144000000E+02 -2.759319945E+01
 5.324411132E+02 9.144000000E+02 -2.768259188E+01
 5.324411132E+02 9.144000000E+02 -2.768259227E+01
 5.324348636E+02 9.144000000E+02 -2.777198489E+01
 5.324348636E+02 9.144000000E+02 -2.777198528E+01
 5.324286140E+02 9.144000000E+02 -2.786137790E+01
 5.324286139E+02 9.144000000E+02 -2.786137828E+01
 5.324223644E+02 9.144000000E+02 -2.795077090E+01
 5.324223643E+02 9.144000000E+02 -2.795077129E+01
 5.324161148E+02 9.144000000E+02 -2.804016391E+01
 5.324161147E+02 9.144000000E+02 -2.804016430E+01
 5.324098652E+02 9.144000000E+02 -2.812955692E+01
 5.324098651E+02 9.144000000E+02 -2.812955731E+01
 5.324036182E+02 9.144000000E+02 -2.821895011E+01
 5.324036182E+02 9.144000000E+02 -2.821895050E+01
 5.323973739E+02 9.144000000E+02 -2.830834349E+01
 5.323973739E+02 9.144000000E+02 -2.830834388E+01
 5.323911297E+02 9.144000000E+02 -2.839773687E+01
 5.323911296E+02 9.144000000E+02 -2.839773726E+01
 5.323848854E+02 9.144000000E+02 -2.848713025E+01
 5.323848854E+02 9.144000000E+02 -2.848713064E+01
 5.323786205E+02 9.144000000E+02 -2.857652219E+01
 5.323786205E+02 9.144000000E+02 -2.857652258E+01
 5.321252356E+02 9.144000000E+02 -2.859416244E+01
 5.321252345E+02 9.144000000E+02 -2.859416252E+01
 5.317198154E+02 9.144000000E+02 -2.862234154E+01
 5.317198137E+02 9.144000000E+02 -2.862234166E+01
 5.310711331E+02 9.144000000E+02 -2.866728257E+01
 5.310711303E+02 9.144000000E+02 -2.866728277E+01
 5.300332342E+02 9.144000000E+02 -2.873908334E+01
 5.300332297E+02 9.144000000E+02 -2.873908365E+01
 5.283725384E+02 9.144000000E+02 -2.885313108E+01
 5.283725312E+02 9.144000000E+02 -2.885313158E+01
 5.258042195E+02 9.144000000E+02 -2.902791979E+01
 5.258042083E+02 9.144000000E+02 -2.902792055E+01
 5.232357511E+02 9.144000000E+02 -2.920055656E+01
 5.232357399E+02 9.144000000E+02 -2.920055731E+01
 5.206671518E+02 9.144000000E+02 -2.937123546E+01
 5.206671406E+02 9.144000000E+02 -2.937123620E+01
 5.180984184E+02 9.144000000E+02 -2.953988434E+01
 5.180984072E+02 9.144000000E+02 -2.953988507E+01
 5.155295548E+02 9.144000000E+02 -2.970653751E+01
 5.155295437E+02 9.144000000E+02 -2.970653824E+01
 5.129605649E+02 9.144000000E+02 -2.987123085E+01
 5.129605537E+02 9.144000000E+02 -2.987123157E+01
 5.103914545E+02 9.144000000E+02 -3.003403601E+01
 5.103914433E+02 9.144000000E+02 -3.003403672E+01
 5.078222168E+02 9.144000000E+02 -3.019481847E+01
 5.078222056E+02 9.144000000E+02 -3.019481917E+01
 5.052528643E+02 9.144000000E+02 -3.035375498E+01
 5.052528531E+02 9.144000000E+02 -3.035375567E+01
 5.026833942E+02 9.144000000E+02 -3.051078118E+01
 5.026833831E+02 9.144000000E+02 -3.051078186E+01
 5.001138135E+02 9.144000000E+02 -3.066598637E+01
 5.001138024E+02 9.144000000E+02 -3.066598704E+01
 4.975441142E+02 9.144000000E+02 -3.081921499E+01
 4.975441030E+02 9.144000000E+02 -3.081921565E+01
 4.949743088E+02 9.144000000E+02 -3.097065428E+01
 4.949742976E+02 9.144000000E+02 -3.097065494E+01
 4.924043935E+02 9.144000000E+02 -3.112021598E+01
 4.924043823E+02 9.144000000E+02 -3.112021663E+01
 4.898343728E+02 9.144000000E+02 -3.126795631E+01
 4.898343616E+02 9.144000000E+02 -3.126795696E+01
 4.872642502E+02 9.144000000E+02 -3.141391271E+01
 4.872642390E+02 9.144000000E+02 -3.141391335E+01
 4.846940267E+02 9.144000000E+02 -3.155808334E+01
 4.846940156E+02 9.144000000E+02 -3.155808396E+01
 4.821237017E+02 9.144000000E+02 -3.170043104E+01
 4.821236905E+02 9.144000000E+02 -3.170043166E+01
 4.795532792E+02 9.144000000E+02 -3.184100738E+01
 4.795532680E+02 9.144000000E+02 -3.184100799E+01
 4.769827617E+02 9.144000000E+02 -3.197983686E+01
 4.769827506E+02 9.144000000E+02 -3.197983746E+01
 4.744121506E+02 9.144000000E+02 -3.211692029E+01
 4.744121394E+02 9.144000000E+02 -3.211692088E+01
 4.718414471E+02 9.144000000E+02 -3.225226128E+01
 4.718414359E+02 9.144000000E+02 -3.225226187E+01
 4.692706540E+02 9.144000000E+02 -3.238588859E+01
 4.692706428E+02 9.144000000E+02 -3.238588917E+01
 4.666997713E+02 9.144000000E+02 -3.251778335E+01
 4.666997602E+02 9.144000000E+02 -3.251778392E+01
 4.641288004E+02 9.144000000E+02 -3.264794520E+01
 4.641287892E+02 9.144000000E+02 -3.264794576E+01
 4.615577446E+02 9.144000000E+02 -3.277641963E+01
 4.615577334E+02 9.144000000E+02 -3.277642019E+01
 4.589866050E+02 9.144000000E+02 -3.290320532E+01
 4.589865938E+02 9.144000000E+02 -3.290320587E+01
 4.564153851E+02 9.144000000E+02 -3.302835258E+01
 4.564153739E+02 9.144000000E+02 -3.302835313E+01
 4.538440829E+02 9.144000000E+02 -3.315179698E+01
 4.538440717E+02 9.144000000E+02 -3.315179751E+01
 4.512726992E+02 9.144000000E+02 -3.327353091E+01
 4.512726880E+02 9.144000000E+02 -3.327353144E+01
 4.487012392E+02 9.144000000E+02 -3.339364376E+01
 4.487012280E+02 9.144000000E+02 -3.339364428E+01
 4.461297050E+02 9.144000000E+02 -3.351215848E+01
 4.461296939E+02 9.144000000E+02 -3.351215899E+01
 4.435580893E+02 9.144000000E+02 -3.362888939E+01
 4.435580781E+02 9.144000000E+02 -3.362888990E+01
 4.409864033E+02 9.144000000E+02 -3.374406234E+01
 4.409863922E+02 9.144000000E+02 -3.374406284E+01
 4.384146449E+02 9.144000000E+02 -3.385760552E+01
 4.384146337E+02 9.144000000E+02 -3.385760602E+01
 4.358428117E+02 9.144000000E+02 -3.396944335E+01
 4.358428005E+02 9.144000000E+02 -3.396944384E+01
 4.332709123E+02 9.144000000E+02 -3.407974673E+01
 4.332709011E+02 9.144000000E+02 -3.407974721E+01
 4.306989390E+02 9.144000000E+02 -3.418831323E+01
 4.306989278E+02 9.144000000E+02 -3.418831370E+01
 4.281269011E+02 9.144000000E+02 -3.429533975E+01
 4.281268899E+02 9.144000000E+02 -3.429534021E+01
 4.255547940E+02 9.144000000E+02 -3.440069119E+01
 4.255547829E+02 9.144000000E+02 -3.440069165E+01
 4.229826220E+02 9.144000000E+02 -3.450444192E+01
 4.229826108E+02 9.144000000E+02 -3.450444237E+01
 4.204103848E+02 9.144000000E+02 -3.460656693E+01
 4.204103736E+02 9.144000000E+02 -3.460656738E+01
 4.178380839E+02 9.144000000E+02 -3.470707247E+01
 4.178380727E+02 9.144000000E+02 -3.470707291E+01
 4.152657200E+02 9.144000000E+02 -3.480595435E+01
 4.152657088E+02 9.144000000E+02 -3.480595478E+01
 4.126932949E+02 9.144000000E+02 -3.490323099E+01
 4.126932837E+02 9.144000000E+02 -3.490323141E+01
 4.101208079E+02 9.144000000E+02 -3.499885406E+01
 4.101207967E+02 9.144000000E+02 -3.499885447E+01
 4.075482627E+02 9.144000000E+02 -3.509290210E+01
 4.075482515E+02 9.144000000E+02 -3.509290251E+01
 4.049756560E+02 9.144000000E+02 -3.518525083E+01
 4.049756448E+02 9.144000000E+02 -3.518525123E+01
 4.024029964E+02 9.144000000E+02 -3.527611475E+01
 4.024029853E+02 9.144000000E+02 -3.527611514E+01
 3.998302732E+02 9.144000000E+02 -3.536515658E+01
 3.998302620E+02 9.144000000E+02 -3.536515697E+01
 3.972574985E+02 9.144000000E+02 -3.545270067E+01
 3.972574873E+02 9.144000000E+02 -3.545270105E+01
 3.946846665E+02 9.144000000E+02 -3.553854247E+01
 3.946846553E+02 9.144000000E+02 -3.553854284E+01
 3.921117802E+02 9.144000000E+02 -3.562274328E+01
 3.921117690E+02 9.144000000E+02 -3.562274364E+01
 3.895388440E+02 9.144000000E+02 -3.570540434E+01
 3.895388328E+02 9.144000000E+02 -3.570540470E+01
 3.869658496E+02 9.144000000E+02 -3.578623252E+01
 3.869658384E+02 9.144000000E+02 -3.578623288E+01
 3.843928072E+02 9.144000000E+02 -3.586552075E+01
 3.843927961E+02 9.144000000E+02 -3.586552109E+01
 3.818197139E+02 9.144000000E+02 -3.594313577E+01
 3.818197027E+02 9.144000000E+02 -3.594313611E+01
 3.792465682E+02 9.144000000E+02 -3.601899705E+01
 3.792465571E+02 9.144000000E+02 -3.601899738E+01
 3.766733769E+02 9.144000000E+02 -3.609329017E+01
 3.766733657E+02 9.144000000E+02 -3.609329049E+01
 3.741001351E+02 9.144000000E+02 -3.616581752E+01
 3.741001239E+02 9.144000000E+02 -3.616581784E+01
 3.715268453E+02 9.144000000E+02 -3.623662125E+01
 3.715268341E+02 9.144000000E+02 -3.623662156E+01
 3.689535119E+02 9.144000000E+02 -3.630582063E+01
 3.689535007E+02 9.144000000E+02 -3.630582093E+01
 3.663801307E+02 9.144000000E+02 -3.637322056E+01
 3.663801195E+02 9.144000000E+02 -3.637322086E+01
 3.638067041E+02 9.144000000E+02 -3.643886124E+01
 3.638066929E+02 9.144000000E+02 -3.643886153E+01
 3.612332361E+02 9.144000000E+02 -3.650286086E+01
 3.612332249E+02 9.144000000E+02 -3.650286113E+01
 3.586597239E+02 9.144000000E+02 -3.656506080E+01
 3.586597128E+02 9.144000000E+02 -3.656506107E+01
 3.560861680E+02 9.144000000E+02 -3.662542031E+01
 3.560861568E+02 9.144000000E+02 -3.662542057E+01
 3.535125731E+02 9.144000000E+02 -3.668409467E+01
 3.535125619E+02 9.144000000E+02 -3.668409493E+01
 3.509389394E+02 9.144000000E+02 -3.674103945E+01
 3.509389282E+02 9.144000000E+02 -3.674103970E+01
 3.483652638E+02 9.144000000E+02 -3.679606316E+01
 3.483652526E+02 9.144000000E+02 -3.679606339E+01
 3.457915503E+02 9.144000000E+02 -3.684928650E+01
 3.457915391E+02 9.144000000E+02 -3.684928673E+01
 3.432177996E+02 9.144000000E+02 -3.690067780E+01
 3.432177884E+02 9.144000000E+02 -3.690067802E+01
 3.406440122E+02 9.144000000E+02 -3.695019540E+01
 3.406440010E+02 9.144000000E+02 -3.695019562E+01
 3.380701901E+02 9.144000000E+02 -3.699787402E+01
 3.380701789E+02 9.144000000E+02 -3.699787423E+01
 3.354963328E+02 9.144000000E+02 -3.704361546E+01
 3.354963216E+02 9.144000000E+02 -3.704361566E+01
 3.329224433E+02 9.144000000E+02 -3.708750733E+01
 3.329224321E+02 9.144000000E+02 -3.708750752E+01
 3.303485206E+02 9.144000000E+02 -3.712940566E+01
 3.303485094E+02 9.144000000E+02 -3.712940584E+01
 3.277745679E+02 9.144000000E+02 -3.716942158E+01
 3.277745567E+02 9.144000000E+02 -3.716942176E+01
 3.252005846E+02 9.144000000E+02 -3.720741277E+01
 3.252005734E+02 9.144000000E+02 -3.720741294E+01
 3.226265734E+02 9.144000000E+02 -3.724347112E+01
 3.226265622E+02 9.144000000E+02 -3.724347128E+01
 3.200525342E+02 9.144000000E+02 -3.727746818E+01
 3.200525230E+02 9.144000000E+02 -3.727746832E+01
 3.174784696E+02 9.144000000E+02 -3.730948223E+01
 3.174784584E+02 9.144000000E+02 -3.730948237E+01
 3.149043797E+02 9.144000000E+02 -3.733939680E+01
 3.149043685E+02 9.144000000E+02 -3.733939693E+01
 3.123302670E+02 9.144000000E+02 -3.736727934E+01
 3.123302558E+02 9.144000000E+02 -3.736727946E+01
 3.097561319E+02 9.144000000E+02 -3.739301146E+01
 3.097561207E+02 9.144000000E+02 -3.739301158E+01
 3.071819769E+02 9.144000000E+02 -3.741667259E+01
 3.071819657E+02 9.144000000E+02 -3.741667270E+01
 3.046078025E+02 9.144000000E+02 -3.743811547E+01
 3.046077913E+02 9.144000000E+02 -3.743811557E+01
 3.020336114E+02 9.144000000E+02 -3.745744890E+01
 3.020336002E+02 9.144000000E+02 -3.745744899E+01
 2.994594042E+02 9.144000000E+02 -3.747449396E+01
 2.994593930E+02 9.144000000E+02 -3.747449403E+01
 2.968851835E+02 9.144000000E+02 -3.748938830E+01
 2.968851723E+02 9.144000000E+02 -3.748938836E+01
 2.943109504E+02 9.144000000E+02 -3.750193150E+01
 2.943109392E+02 9.144000000E+02 -3.750193155E+01
 2.917367074E+02 9.144000000E+02 -3.751225435E+01
 2.917366962E+02 9.144000000E+02 -3.751225439E+01
 2.891624559E+02 9.144000000E+02 -3.752019264E+01
 2.891624447E+02 9.144000000E+02 -3.752019268E+01
 2.865881984E+02 9.144000000E+02 -3.752582020E+01
 2.865881872E+02 9.144000000E+02 -3.752582022E+01
 2.840139367E+02 9.144000000E+02 -3.752902581E+01
 2.840139255E+02 9.144000000E+02 -3.752902583E+01
 2.814396731E+02 9.144000000E+02 -3.752982640E+01
 2.814396619E+02 9.144000000E+02 -3.752982641E+01
 2.788654099E+02 9.144000000E+02 -3.752817438E+01
 2.788653987E+02 9.144000000E+02 -3.752817438E+01
 2.762911496E+02 9.144000000E+02 -3.752401690E+01
 2.762911384E+02 9.144000000E+02 -3.752401688E+01
 2.737168945E+02 9.144000000E+02 -3.751736799E+01
 2.737168833E+02 9.144000000E+02 -3.751736796E+01
 2.711426475E+02 9.144000000E+02 -3.750810170E+01
 2.711426363E+02 9.144000000E+02 -3.750810166E+01
 2.685684108E+02 9.144000000E+02 -3.749630799E+01
 2.685683996E+02 9.144000000E+02 -3.749630794E+01
 2.659941881E+02 9.144000000E+02 -3.748178193E+01
 2.659941769E+02 9.144000000E+02 -3.748178187E+01
 2.634199812E+02 9.144000000E+02 -3.746467255E+01
 2.634199700E+02 9.144000000E+02 -3.746467248E+01
 2.608457946E+02 9.144000000E+02 -3.744475894E+01
 2.608457834E+02 9.144000000E+02 -3.744475885E+01
 2.582716301E+02 9.144000000E+02 -3.742215514E+01
 2.582716189E+02 9.144000000E+02 -3.742215504E+01
 2.556974923E+02 9.144000000E+02 -3.739670146E+01
 2.556974811E+02 9.144000000E+02 -3.739670135E+01
 2.531233838E+02 9.144000000E+02 -3.736843089E+01
 2.531233726E+02 9.144000000E+02 -3.736843076E+01
 2.505493088E+02 9.144000000E+02 -3.733726187E+01
 2.505492976E+02 9.144000000E+02 -3.733726173E+01
 2.479752712E+02 9.144000000E+02 -3.730314506E+01
 2.479752600E+02 9.144000000E+02 -3.730314491E+01
 2.454012743E+02 9.144000000E+02 -3.726608901E+01
 2.454012631E+02 9.144000000E+02 -3.726608885E+01
 2.428273236E+02 9.144000000E+02 -3.722594575E+01
 2.428273124E+02 9.144000000E+02 -3.722594558E+01
 2.402534215E+02 9.144000000E+02 -3.718280380E+01
 2.402534103E+02 9.144000000E+02 -3.718280362E+01
 2.376795754E+02 9.144000000E+02 -3.713643627E+01
 2.376795642E+02 9.144000000E+02 -3.713643607E+01
 2.351057864E+02 9.144000000E+02 -3.708700207E+01
 2.351057752E+02 9.144000000E+02 -3.708700185E+01
 2.325320642E+02 9.144000000E+02 -3.703420567E+01
 2.325320530E+02 9.144000000E+02 -3.703420544E+01
 2.299584088E+02 9.144000000E+02 -3.697824403E+01
 2.299583976E+02 9.144000000E+02 -3.697824379E+01
 2.273848306E+02 9.144000000E+02 -3.691884398E+01
 2.273848194E+02 9.144000000E+02 -3.691884372E+01
 2.248113305E+02 9.144000000E+02 -3.685614741E+01
 2.248113193E+02 9.144000000E+02 -3.685614713E+01
 2.222379194E+02 9.144000000E+02 -3.678990104E+01
 2.222379082E+02 9.144000000E+02 -3.678990076E+01
 2.196645987E+02 9.144000000E+02 -3.672022854E+01
 2.196645875E+02 9.144000000E+02 -3.672022823E+01
 2.170913795E+02 9.144000000E+02 -3.664690310E+01
 2.170913684E+02 9.144000000E+02 -3.664690278E+01
 2.145182643E+02 9.144000000E+02 -3.657001665E+01
 2.145182531E+02 9.144000000E+02 -3.657001632E+01
 2.119452642E+02 9.144000000E+02 -3.648937139E+01
 2.119452530E+02 9.144000000E+02 -3.648937104E+01
 2.093723821E+02 9.144000000E+02 -3.640504247E+01
 2.093723709E+02 9.144000000E+02 -3.640504210E+01
 2.067996315E+02 9.144000000E+02 -3.631679457E+01
 2.067996203E+02 9.144000000E+02 -3.631679419E+01
 2.042270140E+02 9.144000000E+02 -3.622474926E+01
 2.042270028E+02 9.144000000E+02 -3.622474886E+01
 2.016545457E+02 9.144000000E+02 -3.612862255E+01
 2.016545345E+02 9.144000000E+02 -3.612862213E+01
 1.990822265E+02 9.144000000E+02 -3.602858522E+01
 1.990822153E+02 9.144000000E+02 -3.602858478E+01
 1.965100758E+02 9.144000000E+02 -3.592430650E+01
 1.965100646E+02 9.144000000E+02 -3.592430605E+01
 1.939380925E+02 9.144000000E+02 -3.581597610E+01
 1.939380813E+02 9.144000000E+02 -3.581597563E+01
 1.913662977E+02 9.144000000E+02 -3.570326087E+01
 1.913662865E+02 9.144000000E+02 -3.570326038E+01
 1.887946930E+02 9.144000000E+02 -3.558628761E+01
 1.887946818E+02 9.144000000E+02 -3.558628710E+01
 1.862232955E+02 9.144000000E+02 -3.546484530E+01
 1.862232843E+02 9.144000000E+02 -3.546484477E+01
 1.836521143E+02 9.144000000E+02 -3.533890679E+01
 1.836521031E+02 9.144000000E+02 -3.533890624E+01
 1.810811597E+02 9.144000000E+02 -3.520842321E+01
 1.810811486E+02 9.144000000E+02 -3.520842264E+01
 1.785104511E+02 9.144000000E+02 -3.507318199E+01
 1.785104399E+02 9.144000000E+02 -3.507318140E+01
 1.759399922E+02 9.144000000E+02 -3.493327258E+01
 1.759399811E+02 9.144000000E+02 -3.493327197E+01
 1.733698081E+02 9.144000000E+02 -3.478840520E+01
 1.733697969E+02 9.144000000E+02 -3.478840457E+01
 1.707999062E+02 9.144000000E+02 -3.463861309E+01
 1.707998950E+02 9.144000000E+02 -3.463861244E+01
 1.682303000E+02 9.144000000E+02 -3.448383199E+01
 1.682302888E+02 9.144000000E+02 -3.448383132E+01
 1.656610173E+02 9.144000000E+02 -3.432376982E+01
 1.656610061E+02 9.144000000E+02 -3.432376912E+01
 1.630920615E+02 9.144000000E+02 -3.415854525E+01
 1.630920504E+02 9.144000000E+02 -3.415854453E+01
 1.605234549E+02 9.144000000E+02 -3.398797801E+01
 1.605234437E+02 9.144000000E+02 -3.398797727E+01
 1.579552253E+02 9.144000000E+02 -3.381182467E+01
 1.579552141E+02 9.144000000E+02 -3.381182391E+01
 1.553873800E+02 9.144000000E+02 -3.363015561E+01
 1.553873688E+02 9.144000000E+02 -3.363015482E+01
 1.528199409E+02 9.144000000E+02 -3.344283355E+01
 1.528199297E+02 9.144000000E+02 -3.344283274E+01
 1.502527853E+02 9.144000000E+02 -3.325162165E+01
 1.502527741E+02 9.144000000E+02 -3.325162082E+01
 1.476856563E+02 9.144000000E+02 -3.305977682E+01
 1.476856451E+02 9.144000000E+02 -3.305977599E+01
 1.451188043E+02 9.144000000E+02 -3.286390617E+01
 1.451187931E+02 9.144000000E+02 -3.286390531E+01
 1.425523695E+02 9.144000000E+02 -3.266230077E+01
 1.425523583E+02 9.144000000E+02 -3.266229989E+01
 1.399863842E+02 9.144000000E+02 -3.245470594E+01
 1.399863730E+02 9.144000000E+02 -3.245470504E+01
 1.374208105E+02 9.144000000E+02 -3.224168835E+01
 1.374207993E+02 9.144000000E+02 -3.224168743E+01
 1.348556459E+02 9.144000000E+02 -3.202332828E+01
 1.348556347E+02 9.144000000E+02 -3.202332733E+01
 1.322909582E+02 9.144000000E+02 -3.179894435E+01
 1.322909470E+02 9.144000000E+02 -3.179894337E+01
 1.297267949E+02 9.144000000E+02 -3.156812782E+01
 1.297267837E+02 9.144000000E+02 -3.156812682E+01
 1.271631577E+02 9.144000000E+02 -3.133099386E+01
 1.271631465E+02 9.144000000E+02 -3.133099283E+01
 1.245999981E+02 9.144000000E+02 -3.108812816E+01
 1.245999869E+02 9.144000000E+02 -3.108812711E+01
 1.220373536E+02 9.144000000E+02 -3.083919536E+01
 1.220373425E+02 9.144000000E+02 -3.083919428E+01
 1.194753190E+02 9.144000000E+02 -3.058335838E+01
 1.194753078E+02 9.144000000E+02 -3.058335727E+01
 1.169139345E+02 9.144000000E+02 -3.032034922E+01
 1.169139234E+02 9.144000000E+02 -3.032034808E+01
 1.143531597E+02 9.144000000E+02 -3.005063373E+01
 1.143531486E+02 9.144000000E+02 -3.005063256E+01
 1.117929259E+02 9.144000000E+02 -2.977484385E+01
 1.117929148E+02 9.144000000E+02 -2.977484265E+01
 1.092107393E+02 9.144000000E+02 -2.948952914E+01
 1.092107281E+02 9.144000000E+02 -2.948952790E+01
 1.067521628E+02 9.144000000E+02 -2.921094328E+01
 1.067521521E+02 9.144000000E+02 -2.921094206E+01
 1.044113173E+02 9.144000000E+02 -2.893889785E+01
 1.044113071E+02 9.144000000E+02 -2.893889667E+01
 1.021825871E+02 9.144000000E+02 -2.867335318E+01
 1.021825774E+02 9.144000000E+02 -2.867335202E+01
 1.000605663E+02 9.144000000E+02 -2.841484463E+01
 1.000605570E+02 9.144000000E+02 -2.841484350E+01
 9.803991274E+01 9.144000000E+02 -2.816497977E+01
 9.803990395E+01 9.144000000E+02 -2.816497868E+01
 9.611577373E+01 9.144000000E+02 -2.792354378E+01
 9.611576536E+01 9.144000000E+02 -2.792354273E+01
 9.428372257E+01 9.144000000E+02 -2.768919037E+01
 9.428371460E+01 9.144000000E+02 -2.768918935E+01
 9.253937005E+01 9.144000000E+02 -2.746166188E+01
 9.253936246E+01 9.144000000E+02 -2.746166089E+01
 9.087849010E+01 9.144000000E+02 -2.724102125E+01
 9.087848287E+01 9.144000000E+02 -2.724102029E+01
 8.929727689E+01 9.144000000E+02 -2.702595206E+01
 8.929727001E+01 9.144000000E+02 -2.702595113E+01
 8.779180830E+01 9.144000000E+02 -2.681738348E+01
 8.779180175E+01 9.144000000E+02 -2.681738258E+01
 8.779179551E+01 9.144000000E+02 -2.681738172E+01
 8.635767198E+01 9.144000000E+02 -2.661997385E+01
 8.635766574E+01 9.144000000E+02 -2.661997298E+01
 8.492388723E+01 9.144000000E+02 -2.641927439E+01
 8.492388099E+01 9.144000000E+02 -2.641927350E+01
 8.349042188E+01 9.144000000E+02 -2.621568220E+01
 8.349041564E+01 9.144000000E+02 -2.621568131E+01
 8.205705555E+01 9.144000000E+02 -2.601041145E+01
 8.205704932E+01 9.144000000E+02 -2.601041055E+01
 8.062393869E+01 9.144000000E+02 -2.580244704E+01
 8.062393245E+01 9.144000000E+02 -2.580244613E+01
 7.919112356E+01 9.144000000E+02 -2.559143832E+01
 7.919111733E+01 9.144000000E+02 -2.559143739E+01
 7.775862735E+01 9.144000000E+02 -2.537725091E+01
 7.775862112E+01 9.144000000E+02 -2.537724996E+01
 7.632648777E+01 9.144000000E+02 -2.515973109E+01
 7.632648154E+01 9.144000000E+02 -2.515973013E+01
 7.489471281E+01 9.144000000E+02 -2.493879456E+01
 7.489470658E+01 9.144000000E+02 -2.493879358E+01
 7.346331308E+01 9.144000000E+02 -2.471437394E+01
 7.346330685E+01 9.144000000E+02 -2.471437294E+01
 7.203230300E+01 9.144000000E+02 -2.448638700E+01
 7.203229678E+01 9.144000000E+02 -2.448638599E+01
 7.060168806E+01 9.144000000E+02 -2.425477945E+01
 7.060168184E+01 9.144000000E+02 -2.425477842E+01
 6.917134361E+01 9.144000000E+02 -2.402015740E+01
 6.917133739E+01 9.144000000E+02 -2.402015637E+01
 6.774091062E+01 9.144000000E+02 -2.378428624E+01
 6.774090439E+01 9.144000000E+02 -2.378428521E+01
 6.631026850E+01 9.144000000E+02 -2.354759823E+01
 6.631026228E+01 9.144000000E+02 -2.354759719E+01
 6.487969303E+01 9.144000000E+02 -2.330853670E+01
 6.487968681E+01 9.144000000E+02 -2.330853565E+01
 6.344936385E+01 9.144000000E+02 -2.306607682E+01
 6.344935763E+01 9.144000000E+02 -2.306607575E+01
 6.201933824E+01 9.144000000E+02 -2.281988627E+01
 6.201933202E+01 9.144000000E+02 -2.281988518E+01
 6.058967713E+01 9.144000000E+02 -2.256971491E+01
 6.058967092E+01 9.144000000E+02 -2.256971381E+01
 5.916038489E+01 9.144000000E+02 -2.231549067E+01
 5.916037867E+01 9.144000000E+02 -2.231548955E+01
 5.773137150E+01 9.144000000E+02 -2.205733755E+01
 5.773136528E+01 9.144000000E+02 -2.205733641E+01
 5.630262974E+01 9.144000000E+02 -2.179516443E+01
 5.630262352E+01 9.144000000E+02 -2.179516328E+01
 5.487418794E+01 9.144000000E+02 -2.152881777E+01
 5.487418172E+01 9.144000000E+02 -2.152881659E+01
 5.344592908E+01 9.144000000E+02 -2.125858121E+01
 5.344592287E+01 9.144000000E+02 -2.125858002E+01
 5.201742563E+01 9.144000000E+02 -2.098626392E+01
 5.201741941E+01 9.144000000E+02 -2.098626273E+01
 5.058804069E+01 9.144000000E+02 -2.071408727E+01
 5.058803447E+01 9.144000000E+02 -2.071408608E+01
 4.915802664E+01 9.144000000E+02 -2.044071186E+01
 4.915802041E+01 9.144000000E+02 -2.044071065E+01
 4.772785676E+01 9.144000000E+02 -2.016390372E+01
 4.772785053E+01 9.144000000E+02 -2.016390250E+01
 4.629746693E+01 9.144000000E+02 -1.988323386E+01
 4.629746071E+01 9.144000000E+02 -1.988323262E+01
 4.486681223E+01 9.144000000E+02 -1.959854452E+01
 4.486680601E+01 9.144000000E+02 -1.959854326E+01
 4.343599916E+01 9.144000000E+02 -1.930929064E+01
 4.343599108E+01 9.144000000E+02 -1.930929606E+01
 4.157572198E+01 9.144000000E+02 -2.056471340E+01
 4.157571376E+01 9.144000000E+02 -2.056471902E+01
 3.968232009E+01 9.144000000E+02 -2.186336493E+01
 3.968231382E+01 9.144000000E+02 -2.186336344E+01
 3.824565343E+01 9.144000000E+02 -2.150694022E+01
 3.824564721E+01 9.144000000E+02 -2.150693854E+01
 3.681557119E+01 9.144000000E+02 -2.112069472E+01
 3.681556497E+01 9.144000000E+02 -2.112069301E+01
 3.538574741E+01 9.144000000E+02 -2.072577243E+01
 3.538574119E+01 9.144000000E+02 -2.072577066E+01
 3.395692171E+01 9.144000000E+02 -2.031987389E+01
 3.395691550E+01 9.144000000E+02 -2.031987208E+01
 3.252920127E+01 9.144000000E+02 -1.990348079E+01
 3.252919506E+01 9.144000000E+02 -1.990347894E+01
 3.110229842E+01 9.144000000E+02 -1.947700274E+01
 3.110229222E+01 9.144000000E+02 -1.947700084E+01
 2.967598662E+01 9.144000000E+02 -1.904061024E+01
 2.967598041E+01 9.144000000E+02 -1.904060829E+01
 2.824959969E+01 9.144000000E+02 -1.859443132E+01
 2.824959348E+01 9.144000000E+02 -1.859442932E+01
 2.682380578E+01 9.144000000E+02 -1.813522300E+01
 2.682379959E+01 9.144000000E+02 -1.813522094E+01
 2.539953879E+01 9.144000000E+02 -1.766072396E+01
 2.539953261E+01 9.144000000E+02 -1.766072183E+01
 2.397728227E+01 9.144000000E+02 -1.716975079E+01
 2.397727609E+01 9.144000000E+02 -1.716974858E+01
 2.255665141E+01 9.144000000E+02 -1.666347752E+01
 2.255664523E+01 9.144000000E+02 -1.666347526E+01
 2.113594923E+01 9.144000000E+02 -1.614367956E+01
 2.113594305E+01 9.144000000E+02 -1.614367722E+01
 1.971563353E+01 9.144000000E+02 -1.560655450E+01
 1.971562736E+01 9.144000000E+02 -1.560655207E+01
 1.829714471E+01 9.144000000E+02 -1.504738769E+01
 1.829713856E+01 9.144000000E+02 -1.504738515E+01
 1.688225306E+01 9.144000000E+02 -1.446303482E+01
 1.688224691E+01 9.144000000E+02 -1.446303218E+01
 1.546895133E+01 9.144000000E+02 -1.385788128E+01
 1.546894516E+01 9.144000000E+02 -1.385787855E+01
 1.405485685E+01 9.144000000E+02 -1.323232198E+01
 1.405485070E+01 9.144000000E+02 -1.323231913E+01
 1.264170924E+01 9.144000000E+02 -1.257740124E+01
 1.264170313E+01 9.144000000E+02 -1.257739821E+01
 1.123619263E+01 9.144000000E+02 -1.187974173E+01
 1.123618655E+01 9.144000000E+02 -1.187973852E+01
 9.838084764E+00 9.144000000E+02 -1.114161243E+01
 9.838078688E+00 9.144000000E+02 -1.114160908E+01
 8.439573244E+00 9.144000000E+02 -1.037089863E+01
 8.439567137E+00 9.144000000E+02 -1.037089511E+01
 7.037987673E+00 9.144000000E+02 -9.561831697E+00
 7.037981585E+00 9.144000000E+02 -9.561827968E+00
 5.636989606E+00 9.144000000E+02 -8.703891484E+00
 5.636983488E+00 9.144000000E+02 -8.703887548E+00
 4.232169764E+00 9.144000000E+02 -7.800127488E+00
 4.232163631E+00 9.144000000E+02 -7.800123244E+00
 2.829179457E+00 9.144000000E+02 -6.829228901E+00
 2.829173795E+00 9.144000000E+02 -6.829224238E+00
 1.532426328E+00 9.144000000E+02 -5.761221824E+00
 1.532421459E+00 9.144000000E+02 -5.761216738E+00
 4.159350834E-01 9.144000000E+02 -4.594788731E+00
 4.159308865E-01 9.144000000E+02 -4.594783364E+00
 -5.404189871E-01 9.144000000E+02 -3.371804887E+00
 -5.404222985E-01 9.144000000E+02 -3.371799401E+00
 -1.303232841E+00 9.144000000E+02 -2.107892693E+00
 -1.303235143E+00 9.144000000E+02 -2.107886968E+00
 -1.839461989E+00 9.144000000E+02 -7.743795625E-01
 -1.839462008E+00 9.144000000E+02 -7.743728210E-01
 -1.843685989E+00 9.144000000E+02 8.019453194E-01
 -1.843688497E+00 9.144000000E+02 8.019499967E-01
 -2.425812244E+00 9.144000000E+02 1.890005825E+00
 -2.425822230E+00 9.144000000E+02 1.890006937E+00
 -4.730768673E+00 9.144000000E+02 2.145883962E+00
 -4.730776757E+00 9.144000000E+02 2.145887134E+00
 -6.579174706E+00 9.144000000E+02 2.870498995E+00
 -6.579181211E+00 9.144000000E+02 2.870503631E+00
 -8.067020519E+00 9.144000000E+02 3.930669832E+00
 -8.067026317E+00 9.144000000E+02 3.930675415E+00
 -9.402290580E+00 9.144000000E+02 5.216226057E+00
 -9.402295870E+00 9.144000000E+02 5.216232513E+00
 -1.061606949E+01 9.144000000E+02 6.697529463E+00
 -1.061607403E+01 9.144000000E+02 6.697536732E+00
 -1.165695147E+01 9.144000000E+02 8.364228151E+00
 -1.165695481E+01 9.144000000E+02 8.364236109E+00
 -1.242438226E+01 9.144000000E+02 1.019241744E+01
 -1.242438412E+01 9.144000000E+02 1.019242583E+01
 -1.285204081E+01 9.144000000E+02 1.211802050E+01
 -1.285204145E+01 9.144000000E+02 1.211802914E+01
 -1.299881320E+01 9.144000000E+02 1.409275316E+01
 -1.299881267E+01 9.144000000E+02 1.409276187E+01
 -1.287903777E+01 9.144000000E+02 1.608239218E+01
 -1.287903584E+01 9.144000000E+02 1.608240064E+01
 -1.243761314E+01 9.144000000E+02 1.802072256E+01
 -1.243760974E+01 9.144000000E+02 1.802073031E+01
 -1.164450192E+01 9.144000000E+02 1.982636474E+01
 -1.164449741E+01 9.144000000E+02 1.982637147E+01
 -1.055589751E+01 9.144000000E+02 2.145371549E+01
 -1.055589222E+01 9.144000000E+02 2.145372137E+01
 -9.260973110E+00 9.144000000E+02 2.289320236E+01
 -9.260966929E+00 9.144000000E+02 2.289320776E+01
 -7.819755467E+00 9.144000000E+02 2.415275673E+01
 -7.819748684E+00 9.144000000E+02 2.415276144E+01
 -6.250596685E+00 9.144000000E+02 2.524121514E+01
 -6.250588117E+00 9.144000000E+02 2.524121759E+01
 -4.266153833E+00 9.144000000E+02 2.580773026E+01
 -4.266134209E+00 9.144000000E+02 2.580771843E+01
 2.584124904E-01 9.144000000E+02 2.308351585E+01
 2.584277467E-01 9.144000000E+02 2.308350643E+01
 3.817123018E+00 9.144000000E+02 2.088509060E+01