#+++++++++++++++++++++++++++++++++++++++++++++++++++++++++++++++++++++++++++++++++++++++++++++++++++++++++++++++++++++++++++++++++
#
#   IPW-3 Final Ice Shape DATA SUBMITTAL FORM for Test Case NACA0012_AE3933, May 18th 2026
#
#       NOMENCLATURE:
#             X_ICED [m]:  X-coordinate of the iced surface
#             Y_ICED [m]:  Y-coordinate of the iced surface
#             Z_ICED [m]:  Z-coordinate of the iced surface
#
#                XXmm:  Roughness height used for the case, in mm.
#                       In the zone name, use the format KS_XXmm.
#                       For example, if k_s = 1.5 mm, use KS_1p5mm. 
#                       For Variable roughness, use KS_VAR
#
#    FLOW CONDITIONS:
#                                   AOA: 4.0 deg
#                           Mach Number: 0.3127 [-]
#       Mean aerodynamic chord (M.A.C.): 0.5334 [m]
#                       Reynolds Number: 3.8947 million (based on MAC)
#                       Freestream Temp: 265.8 [K]
#                        Reference area: 0.97548 [m2]
#               Moment Reference Center: 0.13335, 0, 0 [m] (X, Y, Z)
#
#    ICING CONDITIONS:
#                           Icing Time: 420 [s]
#                                  LWC: 0.55 [g/m3]
#                                  MVD: 20 [μm]
#
#              NOTES: 1. Please use at least 5 decimal places in the numerical values
#                     2. If data are NOT provided, please fill data fields with a numerical value of "-999" 
#
#++++++++++++++++++++++++++++++++++++++++++++++++++++++++++++++++++++++++++++++++++++++++++++++++++++++++++++++++++++

AUXDATA NUM_LAYERS  = "5"
                                              
VARIABLES = "X_ICED" "Y_ICED" "Z_ICED"

ZONE T="SLICE_Y_0p9144_BINS01_KS_XXmm_SINGLE_LAYER"
 5.324727297E-01 9.142882824E-01 -2.722525038E-02
 5.291747451E-01 9.142882824E-01 -2.652716450E-02
 5.291487575E-01 9.142882824E-01 -2.652166598E-02
 5.258504748E-01 9.142882824E-01 -2.582654729E-02
 5.258244872E-01 9.142882824E-01 -2.582107112E-02
 5.225269794E-01 9.142882824E-01 -2.512998506E-02
 5.225009918E-01 9.142882824E-01 -2.512454055E-02
 5.192031860E-01 9.142882824E-01 -2.443740889E-02
 5.191771984E-01 9.142882824E-01 -2.443199605E-02
 5.158792138E-01 9.142882824E-01 -2.374783903E-02
 5.158532262E-01 9.142882824E-01 -2.374244854E-02
 5.125560164E-01 9.142882824E-01 -2.306132577E-02
 5.125300288E-01 9.142882824E-01 -2.305595949E-02
 5.092334151E-01 9.142882824E-01 -2.237985656E-02
 5.092074275E-01 9.142882824E-01 -2.237452939E-02
 5.059117675E-01 9.142882824E-01 -2.170047536E-02
 5.058857799E-01 9.142882824E-01 -2.169516496E-02
 5.025906563E-01 9.142882824E-01 -2.102612704E-02
 5.025646687E-01 9.142882824E-01 -2.102085575E-02
 4.992704391E-01 9.142882824E-01 -2.035386860E-02
 4.992444813E-01 9.142882824E-01 -2.034861408E-02
 4.959519506E-01 9.142882824E-01 -1.968572475E-02
 4.959260225E-01 9.142882824E-01 -1.968050189E-02
 4.926341772E-01 9.142882824E-01 -1.902163960E-02
 4.926082492E-01 9.142882824E-01 -1.901644841E-02
 4.893172085E-01 9.142882824E-01 -1.836062409E-02
 4.892912805E-01 9.142882824E-01 -1.835545711E-02
 4.860019982E-01 9.142882824E-01 -1.770274155E-02
 4.859761000E-01 9.142882824E-01 -1.769759879E-02
 4.826895893E-01 9.142882824E-01 -1.704806089E-02
 4.826636910E-01 9.142882824E-01 -1.704294421E-02
 4.793778956E-01 9.142882824E-01 -1.639743336E-02
 4.793519974E-01 9.142882824E-01 -1.639234833E-02
 4.760679603E-01 9.142882824E-01 -1.574994437E-02
 4.760420918E-01 9.142882824E-01 -1.574488357E-02
 4.727607667E-01 9.142882824E-01 -1.510664634E-02
 4.727349281E-01 9.142882824E-01 -1.510161813E-02
 4.694553614E-01 9.142882824E-01 -1.446648873E-02
 4.694295228E-01 9.142882824E-01 -1.446148567E-02
 4.661517441E-01 9.142882824E-01 -1.382946596E-02
 4.661259353E-01 9.142882824E-01 -1.382448711E-02
 4.628508687E-01 9.142882824E-01 -1.319564134E-02
 4.628250599E-01 9.142882824E-01 -1.319068763E-02
 4.595528245E-01 9.142882824E-01 -1.256502140E-02
 4.595270455E-01 9.142882824E-01 -1.256009284E-02
 4.562574625E-01 9.142882824E-01 -1.193859149E-02
 4.562317133E-01 9.142882824E-01 -1.193369552E-02
 4.529649019E-01 9.142882824E-01 -1.131537184E-02
 4.529391527E-01 9.142882824E-01 -1.131050102E-02
 4.496760964E-01 9.142882824E-01 -1.069542300E-02
 4.496503770E-01 9.142882824E-01 -1.069057733E-02
 4.463890195E-01 9.142882824E-01 -1.007959805E-02
 4.463633299E-01 9.142882824E-01 -1.007478498E-02
 4.431058168E-01 9.142882824E-01 -9.466062300E-03
 4.430801570E-01 9.142882824E-01 -9.461266920E-03
 4.398262799E-01 9.142882824E-01 -8.856777102E-03
 4.398006499E-01 9.142882824E-01 -8.852015249E-03
 4.365495443E-01 9.142882824E-01 -8.250706829E-03
 4.365239441E-01 9.142882824E-01 -8.245970123E-03
 4.332765937E-01 9.142882824E-01 -7.647904102E-03
 4.332510233E-01 9.142882824E-01 -7.643192541E-03
 4.300074279E-01 9.142882824E-01 -7.048374042E-03
 4.299818873E-01 9.142882824E-01 -7.043688092E-03
 4.267429411E-01 9.142882824E-01 -6.453174166E-03
 4.267174304E-01 9.142882824E-01 -6.448522210E-03
 4.234813154E-01 9.142882824E-01 -5.860195961E-03
 4.234558344E-01 9.142882824E-01 -5.855561234E-03
 4.202244282E-01 9.142882824E-01 -5.271540489E-03
 4.201989770E-01 9.142882824E-01 -5.266939756E-03
 4.169723094E-01 9.142882824E-01 -4.686234519E-03
 4.169468880E-01 9.142882824E-01 -4.681659862E-03
 4.137239754E-01 9.142882824E-01 -4.104199819E-03
 4.136985838E-01 9.142882824E-01 -4.099650774E-03
 4.104803503E-01 9.142882824E-01 -3.526496934E-03
 4.104549885E-01 9.142882824E-01 -3.521981649E-03
 4.072414339E-01 9.142882824E-01 -2.952142153E-03
 4.072161317E-01 9.142882824E-01 -2.947652945E-03
 4.040064514E-01 9.142882824E-01 -2.380071674E-03
 4.039811790E-01 9.142882824E-01 -2.375600394E-03
 4.007771611E-01 9.142882824E-01 -1.812392147E-03
 4.007519186E-01 9.142882824E-01 -1.807955210E-03
 3.975535035E-01 9.142882824E-01 -1.249119639E-03
 3.975283206E-01 9.142882824E-01 -1.244717161E-03
 3.943337798E-01 9.142882824E-01 -6.881401059E-04
 3.943086267E-01 9.142882824E-01 -6.837554392E-04
 3.911207318E-01 9.142882824E-01 -1.316210110E-04
 3.910956085E-01 9.142882824E-01 -1.272713416E-04
 3.879124522E-01 9.142882824E-01 4.215465160E-04
 3.878873885E-01 9.142882824E-01 4.258700646E-04
 3.847099841E-01 9.142882824E-01 9.713049512E-04
 3.846849501E-01 9.142882824E-01 9.756018408E-04
 3.815121949E-01 9.142882824E-01 1.516730408E-03
 3.814871907E-01 9.142882824E-01 1.520993421E-03
 3.783212304E-01 9.142882824E-01 2.059658989E-03
 3.782962859E-01 9.142882824E-01 2.063902561E-03
 3.751359880E-01 9.142882824E-01 2.598191611E-03
 3.751111031E-01 9.142882824E-01 2.602400724E-03
 3.719574511E-01 9.142882824E-01 3.132248763E-03
 3.719325960E-01 9.142882824E-01 3.136422951E-03
 3.687837422E-01 9.142882824E-01 3.663944546E-03
 3.687589467E-01 9.142882824E-01 3.668100340E-03
 3.656176925E-01 9.142882824E-01 4.190118983E-03
 3.655929565E-01 9.142882824E-01 4.194231238E-03
 3.624574840E-01 9.142882824E-01 4.713855218E-03
 3.624327779E-01 9.142882824E-01 4.717948847E-03
 3.593039513E-01 9.142882824E-01 5.233131815E-03
 3.592793047E-01 9.142882824E-01 5.237190519E-03
 3.561572134E-01 9.142882824E-01 5.748915020E-03
 3.561326265E-01 9.142882824E-01 5.752946250E-03
 3.530172110E-01 9.142882824E-01 6.260229740E-03
 3.529926538E-01 9.142882824E-01 6.264226045E-03
 3.498839140E-01 9.142882824E-01 6.768056657E-03
 3.498594165E-01 9.142882824E-01 6.772025954E-03
 3.467584252E-01 9.142882824E-01 7.272331975E-03
 3.467339873E-01 9.142882824E-01 7.276273333E-03
 3.436396420E-01 9.142882824E-01 7.772136480E-03
 3.436152637E-01 9.142882824E-01 7.776042912E-03
 3.405275345E-01 9.142882824E-01 8.267463185E-03
 3.405032158E-01 9.142882824E-01 8.271334693E-03
 3.374243081E-01 9.142882824E-01 8.760149591E-03
 3.374000490E-01 9.142882824E-01 8.764000610E-03
 3.343276978E-01 9.142882824E-01 9.247384965E-03
 3.343034983E-01 9.142882824E-01 9.251193143E-03
 3.312388062E-01 9.142882824E-01 9.731054306E-03
 3.312146664E-01 9.142882824E-01 9.734834544E-03
 3.281576931E-01 9.142882824E-01 1.021018159E-02
 3.281336129E-01 9.142882824E-01 1.021392643E-02
 3.250853121E-01 9.142882824E-01 1.068568323E-02
 3.250612915E-01 9.142882824E-01 1.068940014E-02
 3.220206201E-01 9.142882824E-01 1.115664095E-02
 3.219966590E-01 9.142882824E-01 1.116032153E-02
 3.189636469E-01 9.142882824E-01 1.162305381E-02
 3.189397454E-01 9.142882824E-01 1.162669901E-02
 3.159154356E-01 9.142882824E-01 1.208583545E-02
 3.158916235E-01 9.142882824E-01 1.208945271E-02
 3.128749132E-01 9.142882824E-01 1.254407875E-02
 3.128511608E-01 9.142882824E-01 1.254766062E-02
 3.098441064E-01 9.142882824E-01 1.299763564E-02
 3.098204136E-01 9.142882824E-01 1.300118025E-02
 3.068210781E-01 9.142882824E-01 1.344763022E-02
 3.067974448E-01 9.142882824E-01 1.345114689E-02
 3.038076460E-01 9.142882824E-01 1.389195770E-02
 3.037841022E-01 9.142882824E-01 1.389543060E-02
 3.008020222E-01 9.142882824E-01 1.433271822E-02
 3.007785380E-01 9.142882824E-01 1.433616318E-02
 2.978060544E-01 9.142882824E-01 1.476879697E-02
 2.977826297E-01 9.142882824E-01 1.477220561E-02
 2.948198020E-01 9.142882824E-01 1.520019118E-02
 2.947964668E-01 9.142882824E-01 1.520356257E-02
 2.918412387E-01 9.142882824E-01 1.562703587E-02
 2.918179631E-01 9.142882824E-01 1.563037187E-02
 2.888734341E-01 9.142882824E-01 1.605011337E-02
 2.888502479E-01 9.142882824E-01 1.605341956E-02
 2.859142721E-01 9.142882824E-01 1.646758988E-02
 2.858911455E-01 9.142882824E-01 1.647085324E-02
 2.829658091E-01 9.142882824E-01 1.688029990E-02
 2.829427719E-01 9.142882824E-01 1.688352600E-02
 2.800261080E-01 9.142882824E-01 1.728938334E-02
 2.800031304E-01 9.142882824E-01 1.729258150E-02
 2.770970166E-01 9.142882824E-01 1.769272983E-02
 2.770741284E-01 9.142882824E-01 1.769588143E-02
 2.741766572E-01 9.142882824E-01 1.809144393E-02
 2.741538286E-01 9.142882824E-01 1.809456013E-02
 2.712669671E-01 9.142882824E-01 1.848540828E-02
 2.712442279E-01 9.142882824E-01 1.848848723E-02
 2.683679760E-01 9.142882824E-01 1.887460984E-02
 2.683453262E-01 9.142882824E-01 1.887765154E-02
 2.654786706E-01 9.142882824E-01 1.925912499E-02
 2.654560804E-01 9.142882824E-01 1.926212944E-02
 2.626000643E-01 9.142882824E-01 1.963888295E-02
 2.625775635E-01 9.142882824E-01 1.964185014E-02
 2.597320974E-01 9.142882824E-01 2.001289278E-02
 2.597096860E-01 9.142882824E-01 2.001581527E-02
 2.568747699E-01 9.142882824E-01 2.038213797E-02
 2.568524480E-01 9.142882824E-01 2.038502321E-02
 2.540282309E-01 9.142882824E-01 2.074662596E-02
 2.540059686E-01 9.142882824E-01 2.074947394E-02
 2.511923015E-01 9.142882824E-01 2.110635489E-02
 2.511701286E-01 9.142882824E-01 2.110916562E-02
 2.483670264E-01 9.142882824E-01 2.146033943E-02
 2.483449429E-01 9.142882824E-01 2.146310546E-02
 2.455534339E-01 9.142882824E-01 2.180948481E-02
 2.455314398E-01 9.142882824E-01 2.181221358E-02
 2.427505404E-01 9.142882824E-01 2.215387486E-02
 2.427286357E-01 9.142882824E-01 2.215656638E-02
 2.399592698E-01 9.142882824E-01 2.249244973E-02
 2.399374545E-01 9.142882824E-01 2.249509655E-02
 2.371796817E-01 9.142882824E-01 2.282618918E-02
 2.371579558E-01 9.142882824E-01 2.282879688E-02
 2.344107330E-01 9.142882824E-01 2.315417863E-02
 2.343890965E-01 9.142882824E-01 2.315674163E-02
 2.316544652E-01 9.142882824E-01 2.347726375E-02
 2.316329181E-01 9.142882824E-01 2.347978950E-02
 2.289088964E-01 9.142882824E-01 2.379558980E-02
 2.288874388E-01 9.142882824E-01 2.379807830E-02
 2.261759192E-01 9.142882824E-01 2.410803549E-02
 2.261545509E-01 9.142882824E-01 2.411047742E-02
 2.234545946E-01 9.142882824E-01 2.441465110E-02
 2.234333307E-01 9.142882824E-01 2.441704646E-02
 2.207449377E-01 9.142882824E-01 2.471643314E-02
 2.207237631E-01 9.142882824E-01 2.471879125E-02
 2.180479169E-01 9.142882824E-01 2.501232922E-02
 2.180268317E-01 9.142882824E-01 2.501464076E-02
 2.153635770E-01 9.142882824E-01 2.530331723E-02
 2.153425962E-01 9.142882824E-01 2.530559152E-02
 2.126908600E-01 9.142882824E-01 2.558849007E-02
 2.126699686E-01 9.142882824E-01 2.559071966E-02
 2.100317627E-01 9.142882824E-01 2.586770244E-02
 2.100109756E-01 9.142882824E-01 2.586988360E-02
 2.073843479E-01 9.142882824E-01 2.614207380E-02
 2.073636502E-01 9.142882824E-01 2.614421770E-02
 2.047495544E-01 9.142882824E-01 2.641056105E-02
 2.047289610E-01 9.142882824E-01 2.641265839E-02
 2.021273673E-01 9.142882824E-01 2.667315491E-02
 2.021068782E-01 9.142882824E-01 2.667520754E-02
 1.995188147E-01 9.142882824E-01 2.692978084E-02
 1.994984299E-01 9.142882824E-01 2.693178691E-02
 1.969229579E-01 9.142882824E-01 2.718150243E-02
 1.969026625E-01 9.142882824E-01 2.718346938E-02
 1.943406910E-01 9.142882824E-01 2.742727287E-02
 1.943205148E-01 9.142882824E-01 2.742919326E-02
 1.917711496E-01 9.142882824E-01 2.766813152E-02
 1.917510629E-01 9.142882824E-01 2.767001465E-02
 1.892141402E-01 9.142882824E-01 2.790211514E-02
 1.891941577E-01 9.142882824E-01 2.790394425E-02
 1.866718084E-01 9.142882824E-01 2.813104913E-02
 1.866519302E-01 9.142882824E-01 2.813283913E-02
 1.841420978E-01 9.142882824E-01 2.835409343E-02
 1.841223240E-01 9.142882824E-01 2.835583687E-02
 1.816269904E-01 9.142882824E-01 2.857110836E-02
 1.816073358E-01 9.142882824E-01 2.857280336E-02
 1.791245192E-01 9.142882824E-01 2.878222615E-02
 1.791049540E-01 9.142882824E-01 2.878387645E-02
 1.766367108E-01 9.142882824E-01 2.898829803E-02
 1.766172647E-01 9.142882824E-01 2.898990922E-02
 1.741624624E-01 9.142882824E-01 2.918742597E-02
 1.741431206E-01 9.142882824E-01 2.918898128E-02
 1.717019081E-01 9.142882824E-01 2.938156947E-02
 1.716826707E-01 9.142882824E-01 2.938308753E-02
 1.692559570E-01 9.142882824E-01 2.956968732E-02
 1.692368388E-01 9.142882824E-01 2.957115695E-02
 1.668236256E-01 9.142882824E-01 2.975184098E-02
 1.668046117E-01 9.142882824E-01 2.975326404E-02
 1.644058973E-01 9.142882824E-01 2.992795967E-02
 1.643870026E-01 9.142882824E-01 2.992933616E-02
 1.620027870E-01 9.142882824E-01 3.009804524E-02
 1.619840115E-01 9.142882824E-01 3.009937517E-02
 1.596143693E-01 9.142882824E-01 3.026308864E-02
 1.595956981E-01 9.142882824E-01 3.026437759E-02
 1.572395116E-01 9.142882824E-01 3.042118438E-02
 1.572209448E-01 9.142882824E-01 3.042241931E-02
 1.548802257E-01 9.142882824E-01 3.057316504E-02
 1.548617929E-01 9.142882824E-01 3.057435341E-02
 1.525356621E-01 9.142882824E-01 3.072010726E-02
 1.525173336E-01 9.142882824E-01 3.072125465E-02
 1.502056867E-01 9.142882824E-01 3.086101636E-02
 1.501874775E-01 9.142882824E-01 3.086211719E-02
 1.478913426E-01 9.142882824E-01 3.099582344E-02
 1.478732526E-01 9.142882824E-01 3.099687770E-02
 1.455906183E-01 9.142882824E-01 3.112467192E-02
 1.455726326E-01 9.142882824E-01 3.112567775E-02
 1.433064640E-01 9.142882824E-01 3.124733828E-02
 1.432886124E-01 9.142882824E-01 3.124829754E-02
 1.410369575E-01 9.142882824E-01 3.136397526E-02
 1.410192251E-01 9.142882824E-01 3.136488795E-02
 1.387830526E-01 9.142882824E-01 3.147451207E-02
 1.387654394E-01 9.142882824E-01 3.147537634E-02
 1.365437806E-01 9.142882824E-01 3.157901019E-02
 1.365262717E-01 9.142882824E-01 3.157982603E-02
 1.343201548E-01 9.142882824E-01 3.167839721E-02
 1.343027800E-01 9.142882824E-01 3.167917207E-02
 1.321131736E-01 9.142882824E-01 3.177161142E-02
 1.320959181E-01 9.142882824E-01 3.177233785E-02
 1.299207062E-01 9.142882824E-01 3.185780719E-02
 1.299035698E-01 9.142882824E-01 3.185848147E-02
 1.277449280E-01 9.142882824E-01 3.193880990E-02
 1.277279258E-01 9.142882824E-01 3.193944320E-02
 1.255847663E-01 9.142882824E-01 3.201371804E-02
 1.255678833E-01 9.142882824E-01 3.201430291E-02
 1.234402880E-01 9.142882824E-01 3.208351135E-02
 1.234235242E-01 9.142882824E-01 3.208405524E-02
 1.213113442E-01 9.142882824E-01 3.214621916E-02
 1.212947071E-01 9.142882824E-01 3.214670718E-02
 1.191990823E-01 9.142882824E-01 3.220373020E-02
 1.191825718E-01 9.142882824E-01 3.220418096E-02
 1.171034276E-01 9.142882824E-01 3.225507960E-02
 1.170870513E-01 9.142882824E-01 3.225548193E-02
 1.150233969E-01 9.142882824E-01 3.230032697E-02
 1.150071397E-01 9.142882824E-01 3.230068088E-02
 1.129599586E-01 9.142882824E-01 3.233939782E-02
 1.129438281E-01 9.142882824E-01 3.233970329E-02
 1.109131351E-01 9.142882824E-01 3.237229586E-02
 1.108971387E-01 9.142882824E-01 3.237255290E-02
 1.088820025E-01 9.142882824E-01 3.240008280E-02
 1.088661253E-01 9.142882824E-01 3.240029886E-02
 1.068684608E-01 9.142882824E-01 3.242162988E-02
 1.068527251E-01 9.142882824E-01 3.242179751E-02
 1.048716083E-01 9.142882824E-01 3.243799508E-02
 1.048559994E-01 9.142882824E-01 3.243812174E-02
 1.028913483E-01 9.142882824E-01 3.244819492E-02
 1.028758734E-01 9.142882824E-01 3.244827315E-02
 1.009277254E-01 9.142882824E-01 3.245221823E-02
 1.009123772E-01 9.142882824E-01 3.245224804E-02
 9.898068756E-02 9.142882824E-01 3.245007247E-02
 9.896547347E-02 9.142882824E-01 3.245005384E-02
 9.705133736E-02 9.142882824E-01 3.244267032E-02
 9.703625739E-02 9.142882824E-01 3.244261071E-02
 9.513859451E-02 9.142882824E-01 3.242910281E-02
 9.512364864E-02 9.142882824E-01 3.242899477E-02
 9.324353188E-02 9.142882824E-01 3.241028264E-02
 9.322872013E-02 9.142882824E-01 3.241013363E-02
 9.136508405E-02 9.142882824E-01 3.238529339E-02
 9.135039896E-02 9.142882824E-01 3.238509595E-02
 8.950429410E-02 9.142882824E-01 3.235505521E-02
 8.948975056E-02 9.142882824E-01 3.235481679E-02
 8.766112477E-02 9.142882824E-01 3.231857717E-02
 8.764671534E-02 9.142882824E-01 3.231829032E-02
 8.583562076E-02 9.142882824E-01 3.227684647E-02
 8.582135290E-02 9.142882824E-01 3.227651864E-02
 8.402680606E-02 9.142882824E-01 3.222993761E-02
 8.401267231E-02 9.142882824E-01 3.222956881E-02
 8.223658800E-02 9.142882824E-01 3.217672557E-02
 8.222259581E-02 9.142882824E-01 3.217630833E-02
 8.046299219E-02 9.142882824E-01 3.211734444E-02
 8.044912666E-02 9.142882824E-01 3.211687878E-02
 7.870805264E-02 9.142882824E-01 3.205263242E-02
 7.869433612E-02 9.142882824E-01 3.205212578E-02
 7.697080076E-02 9.142882824E-01 3.198267892E-02
 7.695722580E-02 9.142882824E-01 3.198213130E-02
 7.525122911E-02 9.142882824E-01 3.190748021E-02
 7.523778826E-02 9.142882824E-01 3.190689161E-02
 7.354932278E-02 9.142882824E-01 3.182703257E-02
 7.353602350E-02 9.142882824E-01 3.182640299E-02
 7.186602801E-02 9.142882824E-01 3.174028173E-02
 7.185287029E-02 9.142882824E-01 3.173960373E-02
 7.020041347E-02 9.142882824E-01 3.164827451E-02
 7.018739730E-02 9.142882824E-01 3.164755553E-02
 6.855346262E-02 9.142882824E-01 3.155095503E-02
 6.854058802E-02 9.142882824E-01 3.155019507E-02
 6.692419946E-02 9.142882824E-01 3.144838661E-02
 6.691146642E-02 9.142882824E-01 3.144758567E-02
 6.531360745E-02 9.142882824E-01 3.134050220E-02
 6.530101597E-02 9.142882824E-01 3.133966029E-02
 6.372167915E-02 9.142882824E-01 3.122730739E-02
 6.370923668E-02 9.142882824E-01 3.122642264E-02
 6.214744225E-02 9.142882824E-01 3.110886551E-02
 6.213513762E-02 9.142882824E-01 3.110793978E-02
 6.059187278E-02 9.142882824E-01 3.098510765E-02
 6.057971343E-02 9.142882824E-01 3.098413907E-02
 5.905497447E-02 9.142882824E-01 3.085603006E-02
 5.904296413E-02 9.142882824E-01 3.085502051E-02
 5.753774196E-02 9.142882824E-01 3.072156943E-02
 5.752588436E-02 9.142882824E-01 3.072051890E-02
 5.603820458E-02 9.142882824E-01 3.058186546E-02
 5.602648482E-02 9.142882824E-01 3.058077395E-02
 5.455740541E-02 9.142882824E-01 3.043783456E-02
 5.454583094E-02 9.142882824E-01 3.043670766E-02
 5.309520662E-02 9.142882824E-01 3.028750420E-02
 5.308377743E-02 9.142882824E-01 3.028632887E-02
 5.165274069E-02 9.142882824E-01 3.013277054E-02
 5.164146796E-02 9.142882824E-01 3.013156168E-02
 5.022804067E-02 9.142882824E-01 2.997378819E-02
 5.021690577E-02 9.142882824E-01 2.997254580E-02
 4.882398620E-02 9.142882824E-01 2.980936132E-02
 4.881301150E-02 9.142882824E-01 2.980807610E-02
 4.743763432E-02 9.142882824E-01 2.963968553E-02
 4.742679745E-02 9.142882824E-01 2.963835932E-02
 4.607093334E-02 9.142882824E-01 2.946462855E-02
 4.606025293E-02 9.142882824E-01 2.946325950E-02
 4.472298920E-02 9.142882824E-01 2.928524278E-02
 4.471245408E-02 9.142882824E-01 2.928384021E-02
 4.339477792E-02 9.142882824E-01 2.910146862E-02
 4.338439927E-02 9.142882824E-01 2.910003252E-02
 4.208525270E-02 9.142882824E-01 2.891238779E-02
 4.207501933E-02 9.142882824E-01 2.891090885E-02
 4.079545662E-02 9.142882824E-01 2.871891297E-02
 4.078537598E-02 9.142882824E-01 2.871740051E-02
 3.952533752E-02 9.142882824E-01 2.852005884E-02
 3.951540962E-02 9.142882824E-01 2.851850353E-02
 3.827495500E-02 9.142882824E-01 2.831680700E-02
 3.826518357E-02 9.142882824E-01 2.831521817E-02
 3.704332560E-02 9.142882824E-01 2.810923941E-02
 3.703369945E-02 9.142882824E-01 2.810761705E-02
 3.583143279E-02 9.142882824E-01 2.789728530E-02
 3.582196310E-02 9.142882824E-01 2.789562754E-02
 3.463921323E-02 9.142882824E-01 2.767995186E-02
 3.462989628E-02 9.142882824E-01 2.767825313E-02
 3.346581385E-02 9.142882824E-01 2.745928243E-02
 3.345664218E-02 9.142882824E-01 2.745755762E-02
 3.231306747E-02 9.142882824E-01 2.723317407E-02
 3.230405971E-02 9.142882824E-01 2.723140642E-02
 3.118007258E-02 9.142882824E-01 2.700266801E-02
 3.117121756E-02 9.142882824E-01 2.700086683E-02
 3.006681800E-02 9.142882824E-01 2.676777914E-02
 3.005811758E-02 9.142882824E-01 2.676594257E-02
 2.897330746E-02 9.142882824E-01 2.652849630E-02
 2.896476164E-02 9.142882824E-01 2.652662620E-02
 2.789960802E-02 9.142882824E-01 2.628581785E-02
 2.789121680E-02 9.142882824E-01 2.628392167E-02
 2.684557997E-02 9.142882824E-01 2.603777312E-02
 2.683734335E-02 9.142882824E-01 2.603583410E-02
 2.581228316E-02 9.142882824E-01 2.578525990E-02
 2.580420859E-02 9.142882824E-01 2.578328550E-02
 2.479781769E-02 9.142882824E-01 2.552941814E-02
 2.478989027E-02 9.142882824E-01 2.552741766E-02
 2.380407602E-02 9.142882824E-01 2.526912652E-02
 2.379631065E-02 9.142882824E-01 2.526709251E-02
 2.283107303E-02 9.142882824E-01 2.500437759E-02
 2.282346971E-02 9.142882824E-01 2.500230819E-02
 2.187690139E-02 9.142882824E-01 2.473630011E-02
 2.186944522E-02 9.142882824E-01 2.473420464E-02
 2.094437368E-02 9.142882824E-01 2.446271479E-02
 2.093708515E-02 9.142882824E-01 2.446057647E-02
 2.003074996E-02 9.142882824E-01 2.418678068E-02
 2.002361044E-02 9.142882824E-01 2.418462373E-02
 1.913778670E-02 9.142882824E-01 2.390541881E-02
 1.913080737E-02 9.142882824E-01 2.390321903E-02
 1.826562546E-02 9.142882824E-01 2.362057753E-02
 1.825881004E-02 9.142882824E-01 2.361835167E-02
 1.741328835E-02 9.142882824E-01 2.333234809E-02
 1.740662754E-02 9.142882824E-01 2.333009429E-02
 1.658168249E-02 9.142882824E-01 2.303966880E-02
 1.657518372E-02 9.142882824E-01 2.303738147E-02
 1.576989517E-02 9.142882824E-01 2.274359204E-02
 1.576355100E-02 9.142882824E-01 2.274127677E-02
 1.497883908E-02 9.142882824E-01 2.244306728E-02
 1.497265697E-02 9.142882824E-01 2.244071849E-02
 1.420858409E-02 9.142882824E-01 2.213909477E-02
 1.420256495E-02 9.142882824E-01 2.213671803E-02
 1.345811412E-02 9.142882824E-01 2.183181047E-02
 1.345224958E-02 9.142882824E-01 2.182940766E-02
 1.272919681E-02 9.142882824E-01 2.152038552E-02
 1.272350084E-02 9.142882824E-01 2.151795104E-02
 1.201931480E-02 9.142882824E-01 2.120727487E-02
 1.201376691E-02 9.142882824E-01 2.120482735E-02
 1.132580172E-02 9.142882824E-01 2.089785598E-02
 1.132038236E-02 9.142882824E-01 2.089543827E-02
 1.064117905E-02 9.142882824E-01 2.060914598E-02
 1.063582860E-02 9.142882824E-01 2.060689032E-02
 9.939071722E-03 9.142882824E-01 2.038777992E-02
 9.933582507E-03 9.142882824E-01 2.038605325E-02
 9.183199145E-03 9.142882824E-01 2.029105276E-02
 9.177288041E-03 9.142882824E-01 2.029030398E-02
 8.309653960E-03 9.142882824E-01 2.041892335E-02
 8.302818984E-03 9.142882824E-01 2.041993663E-02
 7.076429669E-03 9.142882824E-01 2.114280313E-02
 7.066768128E-03 9.142882824E-01 2.114849724E-02
 4.743179772E-03 9.142882824E-01 2.357664332E-02
 4.724874627E-03 9.142882824E-01 2.359577268E-02
 -1.029649720E-04 9.142882824E-01 2.964414470E-02
 -1.409982651E-04 9.142882824E-01 2.969179302E-02
 -6.602949928E-03 9.142882824E-01 3.752537072E-02
 -6.653856486E-03 9.142882824E-01 3.758708388E-02
 -1.046910696E-02 9.142882824E-01 4.092808813E-02
 -1.049916353E-02 9.142882824E-01 4.095440730E-02
 -1.133112423E-02 9.142882824E-01 3.988841921E-02
 -1.133767795E-02 9.142882824E-01 3.988002241E-02
 -1.170019433E-02 9.142882824E-01 3.819303960E-02
 -1.170304976E-02 9.142882824E-01 3.817975149E-02
 -1.200530585E-02 9.142882824E-01 3.653278947E-02
 -1.200768724E-02 9.142882824E-01 3.651981428E-02
 -1.236075629E-02 9.142882824E-01 3.498650342E-02
 -1.236353815E-02 9.142882824E-01 3.497442603E-02
 -1.273255702E-02 9.142882824E-01 3.345570341E-02
 -1.273546368E-02 9.142882824E-01 3.344373778E-02
 -1.276140753E-02 9.142882824E-01 3.165572509E-02
 -1.276161149E-02 9.142882824E-01 3.164163977E-02
 -1.251498610E-02 9.142882824E-01 2.968038991E-02
 -1.251304336E-02 9.142882824E-01 2.966493927E-02
 -1.213972270E-02 9.142882824E-01 2.770141512E-02
 -1.213678159E-02 9.142882824E-01 2.768594585E-02
 -1.165566966E-02 9.142882824E-01 2.577393688E-02
 -1.165187918E-02 9.142882824E-01 2.575887367E-02
 -1.119805127E-02 9.142882824E-01 2.397641540E-02
 -1.119447593E-02 9.142882824E-01 2.396237291E-02
 -1.088993438E-02 9.142882824E-01 2.239525877E-02
 -1.088753529E-02 9.142882824E-01 2.238291316E-02
 -1.068675332E-02 9.142882824E-01 2.097859792E-02
 -1.068517193E-02 9.142882824E-01 2.096753567E-02
 -1.021864824E-02 9.142882824E-01 1.947234012E-02
 -1.021497324E-02 9.142882824E-01 1.946056075E-02
 -9.729911573E-03 9.142882824E-01 1.804910786E-02
 -9.726090357E-03 9.142882824E-01 1.803798787E-02
 -9.364952333E-03 9.142882824E-01 1.679508388E-02
 -9.362107143E-03 9.142882824E-01 1.678529195E-02
 -8.755440824E-03 9.142882824E-01 1.552250702E-02
 -8.750661276E-03 9.142882824E-01 1.551255863E-02
 -8.145246655E-03 9.142882824E-01 1.433350425E-02
 -8.140477352E-03 9.142882824E-01 1.432421617E-02
 -7.688897196E-03 9.142882824E-01 1.327948086E-02
 -7.685339544E-03 9.142882824E-01 1.327125076E-02
 -7.048212457E-03 9.142882824E-01 1.227256842E-02
 -7.043193094E-03 9.142882824E-01 1.226470061E-02
 -6.502107717E-03 9.142882824E-01 1.135078166E-02
 -6.497845054E-03 9.142882824E-01 1.134358160E-02
 -6.273796316E-03 9.142882824E-01 1.053747255E-02
 -6.272031460E-03 9.142882824E-01 1.053112186E-02
 -5.925501231E-03 9.142882824E-01 9.755499661E-03
 -5.922771525E-03 9.142882824E-01 9.749389254E-03
 -5.275914911E-03 9.142882824E-01 9.007512592E-03
 -5.270819180E-03 9.142882824E-01 9.001668543E-03
 -4.705681931E-03 9.142882824E-01 8.318295702E-03
 -4.701229744E-03 9.142882824E-01 8.312911727E-03
 -4.403878935E-03 9.142882824E-01 7.663161959E-03
 -4.401536658E-03 9.142882824E-01 7.658043411E-03
 -4.025701899E-03 9.142882824E-01 7.051921450E-03
 -4.022741225E-03 9.142882824E-01 7.047146559E-03
 -3.429526230E-03 9.142882824E-01 6.501192227E-03
 -3.424852854E-03 9.142882824E-01 6.496891379E-03
 -2.896466060E-03 9.142882824E-01 5.984730087E-03
 -2.892303513E-03 9.142882824E-01 5.980695132E-03
 -2.563730115E-03 9.142882824E-01 5.455347709E-03
 -2.561141737E-03 9.142882824E-01 5.451208912E-03
 -2.182429191E-03 9.142882824E-01 4.956971388E-03
 -2.179445699E-03 9.142882824E-01 4.953077994E-03
 -1.648882637E-03 9.142882824E-01 4.530214705E-03
 -1.644702861E-03 9.142882824E-01 4.526883364E-03
 -1.134183956E-03 9.142882824E-01 4.126466811E-03
 -1.130162156E-03 9.142882824E-01 4.123312421E-03
 -7.058788324E-04 9.142882824E-01 3.707199125E-03
 -7.025363739E-04 9.142882824E-01 3.703921102E-03
 -2.472658816E-04 9.142882824E-01 3.315671580E-03
 -2.436793147E-04 9.142882824E-01 3.312612884E-03
 1.915359462E-04 9.142882824E-01 2.925166395E-03
 1.949645230E-04 9.142882824E-01 2.922114218E-03
 5.442001857E-04 9.142882824E-01 2.488465281E-03
 5.469514290E-04 9.142882824E-01 2.485048957E-03
 8.610491059E-04 9.142882824E-01 2.020285698E-03
 8.635235135E-04 9.142882824E-01 2.016624436E-03
 1.157830004E-03 9.142882824E-01 1.525484840E-03
 1.160148531E-03 9.142882824E-01 1.521615661E-03
 1.438478124E-03 9.142882824E-01 1.002267585E-03
 1.440670807E-03 9.142882824E-01 9.981761687E-04
 1.739080995E-03 9.142882824E-01 4.716884287E-04
 1.741431886E-03 9.142882824E-01 4.675408127E-04
 2.074016957E-03 9.142882824E-01 -4.762571916E-05
 2.076637000E-03 9.142882824E-01 -5.168415373E-05
 2.436739625E-03 9.142882824E-01 -5.638884613E-04
 2.439576434E-03 9.142882824E-01 -5.679235328E-04
 2.825878328E-03 9.142882824E-01 -1.080484712E-03
 2.828921657E-03 9.142882824E-01 -1.084522577E-03
 3.235047916E-03 9.142882824E-01 -1.596841728E-03
 3.238247242E-03 9.142882824E-01 -1.600877731E-03
 3.662285628E-03 9.142882824E-01 -2.116687596E-03
 3.665626049E-03 9.142882824E-01 -2.120751189E-03
 4.104509018E-03 9.142882824E-01 -2.647470683E-03
 4.107966553E-03 9.142882824E-01 -2.651620191E-03
 4.555508494E-03 9.142882824E-01 -3.195554717E-03
 4.559034016E-03 9.142882824E-01 -3.199839732E-03
 5.020686891E-03 9.142882824E-01 -3.756074933E-03
 5.024323706E-03 9.142882824E-01 -3.760456806E-03
 5.522422027E-03 9.142882824E-01 -4.301878624E-03
 5.526346155E-03 9.142882824E-01 -4.306144081E-03
 6.053349003E-03 9.142882824E-01 -4.836310167E-03
 6.057500839E-03 9.142882824E-01 -4.840486683E-03
 6.603053305E-03 9.142882824E-01 -5.380325951E-03
 6.607350893E-03 9.142882824E-01 -5.384578835E-03
 7.162629627E-03 9.142882824E-01 -5.938471761E-03
 7.167004049E-03 9.142882824E-01 -5.942835473E-03
 7.737692911E-03 9.142882824E-01 -6.509618834E-03
 7.742188871E-03 9.142882824E-01 -6.514084060E-03
 8.351723664E-03 9.142882824E-01 -7.061432116E-03
 8.356525563E-03 9.142882824E-01 -7.065744139E-03
 8.991826326E-03 9.142882824E-01 -7.597970311E-03
 8.996831253E-03 9.142882824E-01 -7.602163125E-03
 9.651147760E-03 9.142882824E-01 -8.145452477E-03
 9.656302631E-03 9.142882824E-01 -8.149732836E-03
 1.032106858E-02 9.142882824E-01 -8.714486845E-03
 1.032630540E-02 9.142882824E-01 -8.718935773E-03
 1.099555101E-02 9.142882824E-01 -9.307896718E-03
 1.100082323E-02 9.142882824E-01 -9.312536567E-03
 1.170356758E-02 9.142882824E-01 -9.889785200E-03