#+++++++++++++++++++++++++++++++++++++++++++++++++++++++++++++++++++++++++++++++++++++++++++++++++++++++++++++++++++++++++++++++++
#
#   IPW-3 Cut/Slice DATA SUBMITTAL FORM for Test Case NACA0012_AE3933, May 18th 2026
#
#       NOMENCLATURE:
#                  X [m]:  X-coordinate of the surface (clean for reference)
#                  Y [m]:  Y-coordinate of the surface (clean for reference)
#                  Z [m]:  Z-coordinate of the surface (clean for reference)
#                 Cp [-]:  Pressure coefficient
#            HTC [W/m2K]:  Convective Heat Transfer Coefficient (on the rough surface)
#               Beta [-]:  Collection efficiency
#                 Ts [K]:  Surface temperature
#                 FF [-]:  Freezing fraction
#                  k [m]:  Surface roughness height if variable (OPTIONAL)
#         RhoIce [kg/m3]:  Ice density (OPTIONAL)
#      HTC_CLEAN [W/m2K]:  Convective Heat Transfer Coefficient on the surface without roughness (OPTIONAL)
#
#                XXmm:  Roughness height used for the case, in mm.
#                       In the zone name, use the format KS_XXmm.
#                       For example, if k_s = 1.5 mm, use KS_1p5mm.
#                       For Variable roughness, use KS_VAR
#
#    FLOW CONDITIONS:
#                                   AOA: 4.0 deg
#                           Mach Number: 0.3127 [-]
#       Mean aerodynamic chord (M.A.C.): 0.5334 [m]
#                       Reynolds Number: 3.8947 million (based on MAC)
#                       Freestream Temp: 265.8 [K]
#                        Reference area: 0.97548 [m2]
#               Moment Reference Center: 0.13335, 0, 0 [m] (X, Y, Z)
#
#    ICING CONDITIONS:
#                           Icing Time: 420 [s]
#                                  LWC: 0.55 [g/m3]
#                                  MVD: 20 [μm]
#
#              NOTES: 1. Please use at least 5 decimal places in the numerical values
#                     2. If data are NOT provided, please fill data fields with a numerical value of "-999"
#
#++++++++++++++++++++++++++++++++++++++++++++++++++++++++++++++++++++++++++++++++++++++++++++++++++++++++++++++++++++

VARIABLES = "X" "Y" "Z" "Cp" "HTC" "Beta" "Ts" "FF"


 ZONE T="SLICE_Y_0p9144_BINS01_KS_1mm_CUTDATA" 
 5.324727297E-01 9.143999815E-01 -2.722525038E-02 1.901199669E-01 3.826249390E+02 7.099451315E-18 2.667741089E+02 0.000000000E+00
 5.291487575E-01 9.143999815E-01 -2.652166598E-02 1.821989268E-01 3.765729065E+02 3.115345821E-18 2.667320862E+02 0.000000000E+00
 5.291487575E-01 9.143999815E-01 -2.652166598E-02 1.821989268E-01 3.765729065E+02 3.115345821E-18 2.667320862E+02 0.000000000E+00
 5.258244872E-01 9.143999815E-01 -2.582107112E-02 1.686789393E-01 3.787873535E+02 -1.042171471E-18 2.666655273E+02 0.000000000E+00
 5.258244872E-01 9.143999815E-01 -2.582107112E-02 1.686789393E-01 3.787873535E+02 -1.042171471E-18 2.666655273E+02 0.000000000E+00
 5.225009918E-01 9.143999815E-01 -2.512454055E-02 1.462675482E-01 3.902333069E+02 -4.084282598E-19 2.665829468E+02 0.000000000E+00
 5.225009918E-01 9.143999815E-01 -2.512454055E-02 1.462675482E-01 3.902333069E+02 -4.084282598E-19 2.665829468E+02 0.000000000E+00
 5.191771984E-01 9.143999815E-01 -2.443199605E-02 1.328513026E-01 3.989817505E+02 4.851482535E-19 2.665014954E+02 0.000000000E+00
 5.191771984E-01 9.143999815E-01 -2.443199605E-02 1.328513026E-01 3.989817505E+02 4.851482535E-19 2.665014954E+02 0.000000000E+00
 5.158532262E-01 9.143999815E-01 -2.374244854E-02 1.207577363E-01 4.073092041E+02 -1.598477213E-18 2.664287415E+02 0.000000000E+00
 5.158532262E-01 9.143999815E-01 -2.374244854E-02 1.207577363E-01 4.073092041E+02 -1.598477213E-18 2.664287415E+02 0.000000000E+00
 5.125300288E-01 9.143999815E-01 -2.305595949E-02 1.041587070E-01 4.187673035E+02 -3.910911229E-19 2.663588562E+02 0.000000000E+00
 5.125300288E-01 9.143999815E-01 -2.305595949E-02 1.041587070E-01 4.187673035E+02 -3.910911229E-19 2.663588562E+02 0.000000000E+00
 5.092074275E-01 9.143999815E-01 -2.237452939E-02 9.386061132E-02 4.257869873E+02 -4.285321608E-19 2.662917480E+02 0.000000000E+00
 5.092074275E-01 9.143999815E-01 -2.237452939E-02 9.386061132E-02 4.257869873E+02 -4.285321608E-19 2.662917480E+02 0.000000000E+00
 5.058857799E-01 9.143999815E-01 -2.169516496E-02 7.921008021E-02 4.356609802E+02 6.932389266E-19 2.662295532E+02 0.000000000E+00
 5.058857799E-01 9.143999815E-01 -2.169516496E-02 7.921008021E-02 4.356609802E+02 6.932389266E-19 2.662295532E+02 0.000000000E+00
 5.025646687E-01 9.143999815E-01 -2.102085575E-02 6.988557428E-02 4.418710022E+02 7.936080398E-19 2.661725159E+02 0.000000000E+00
 5.025646687E-01 9.143999815E-01 -2.102085575E-02 6.988557428E-02 4.418710022E+02 7.936080398E-19 2.661725159E+02 0.000000000E+00
 4.992444813E-01 9.143999815E-01 -2.034861408E-02 6.097298861E-02 4.478386536E+02 -1.079006548E-18 2.661197510E+02 0.000000000E+00
 4.992444813E-01 9.143999815E-01 -2.034861408E-02 6.097298861E-02 4.478386536E+02 -1.079006548E-18 2.661197510E+02 0.000000000E+00
 4.959260225E-01 9.143999815E-01 -1.968050189E-02 4.847063869E-02 4.564139099E+02 -6.188952935E-19 2.660670471E+02 0.000000000E+00
 4.959260225E-01 9.143999815E-01 -1.968050189E-02 4.847063869E-02 4.564139099E+02 -6.188952935E-19 2.660670471E+02 0.000000000E+00
 4.926082492E-01 9.143999815E-01 -1.901644841E-02 4.062538967E-02 4.618798828E+02 1.483215230E-19 2.660147705E+02 0.000000000E+00
 4.926082492E-01 9.143999815E-01 -1.901644841E-02 4.062538967E-02 4.618798828E+02 1.483215230E-19 2.660147705E+02 0.000000000E+00
 4.892912805E-01 9.143999815E-01 -1.835545711E-02 2.890440263E-02 4.697329102E+02 2.488693073E-19 2.659639282E+02 0.000000000E+00
 4.892912805E-01 9.143999815E-01 -1.835545711E-02 2.890440263E-02 4.697329102E+02 2.488693073E-19 2.659639282E+02 0.000000000E+00
 4.859761000E-01 9.143999815E-01 -1.769759879E-02 2.099238709E-02 4.747550659E+02 2.754870488E-19 2.659139404E+02 0.000000000E+00
 4.859761000E-01 9.143999815E-01 -1.769759879E-02 2.099238709E-02 4.747550659E+02 2.754870488E-19 2.659139404E+02 0.000000000E+00
 4.826636910E-01 9.143999815E-01 -1.704294421E-02 9.552235715E-03 4.820626221E+02 -1.287719312E-18 2.658658142E+02 0.000000000E+00
 4.826636910E-01 9.143999815E-01 -1.704294421E-02 9.552235715E-03 4.820626221E+02 -1.287719312E-18 2.658658142E+02 0.000000000E+00
 4.793519974E-01 9.143999815E-01 -1.639234833E-02 2.279517008E-03 4.867996826E+02 -6.341550698E-19 2.658208923E+02 0.000000000E+00
 4.793519974E-01 9.143999815E-01 -1.639234833E-02 2.279517008E-03 4.867996826E+02 -6.341550698E-19 2.658208923E+02 0.000000000E+00
 4.760420918E-01 9.143999815E-01 -1.574488357E-02 -4.745597485E-03 4.914288025E+02 -1.223345067E-19 2.657785645E+02 0.000000000E+00
 4.760420918E-01 9.143999815E-01 -1.574488357E-02 -4.745597485E-03 4.914288025E+02 -1.223345067E-19 2.657785645E+02 0.000000000E+00
 4.727349281E-01 9.143999815E-01 -1.510161813E-02 -1.502211951E-02 4.982079163E+02 1.401644520E-18 2.657353516E+02 0.000000000E+00
 4.727349281E-01 9.143999815E-01 -1.510161813E-02 -1.502211951E-02 4.982079163E+02 1.401644520E-18 2.657353516E+02 0.000000000E+00
 4.694295228E-01 9.143999815E-01 -1.446148567E-02 -2.179360203E-02 5.026371460E+02 2.027547688E-18 2.656918335E+02 0.000000000E+00
 4.694295228E-01 9.143999815E-01 -1.446148567E-02 -2.179360203E-02 5.026371460E+02 2.027547688E-18 2.656918335E+02 0.000000000E+00
 4.661259353E-01 9.143999815E-01 -1.382448711E-02 -3.170373291E-02 5.091733398E+02 -8.590442301E-19 2.656501160E+02 0.000000000E+00
 4.661259353E-01 9.143999815E-01 -1.382448711E-02 -3.170373291E-02 5.091733398E+02 -8.590442301E-19 2.656501160E+02 0.000000000E+00
 4.628250599E-01 9.143999815E-01 -1.319068763E-02 -3.807580471E-02 5.134353638E+02 1.462967865E-18 2.656111145E+02 0.000000000E+00
 4.628250599E-01 9.143999815E-01 -1.319068763E-02 -3.807580471E-02 5.134353638E+02 1.462967865E-18 2.656111145E+02 0.000000000E+00
 4.595270455E-01 9.143999815E-01 -1.256009284E-02 -4.414603487E-02 5.175827026E+02 -1.695094804E-18 2.655746460E+02 0.000000000E+00
 4.595270455E-01 9.143999815E-01 -1.256009284E-02 -4.414603487E-02 5.175827026E+02 -1.695094804E-18 2.655746460E+02 0.000000000E+00
 4.562317133E-01 9.143999815E-01 -1.193369552E-02 -5.291756988E-02 5.235310669E+02 -1.235775368E-18 2.655380554E+02 0.000000000E+00
 4.562317133E-01 9.143999815E-01 -1.193369552E-02 -5.291756988E-02 5.235310669E+02 -1.235775368E-18 2.655380554E+02 0.000000000E+00
 4.529391527E-01 9.143999815E-01 -1.131050102E-02 -5.878018960E-02 5.273574829E+02 -6.843560925E-19 2.655020752E+02 0.000000000E+00
 4.529391527E-01 9.143999815E-01 -1.131050102E-02 -5.878018960E-02 5.273574829E+02 -6.843560925E-19 2.655020752E+02 0.000000000E+00
 4.496503770E-01 9.143999815E-01 -1.069057733E-02 -6.458880752E-02 5.311752319E+02 4.003295154E-19 2.654668274E+02 0.000000000E+00
 4.496503770E-01 9.143999815E-01 -1.069057733E-02 -6.458880752E-02 5.311752319E+02 4.003295154E-19 2.654668274E+02 0.000000000E+00
 4.463633299E-01 9.143999815E-01 -1.007478498E-02 -7.343406975E-02 5.368991089E+02 7.081807036E-19 2.654295654E+02 0.000000000E+00
 4.463633299E-01 9.143999815E-01 -1.007478498E-02 -7.343406975E-02 5.368991089E+02 7.081807036E-19 2.654295654E+02 0.000000000E+00
 4.430801570E-01 9.143999815E-01 -9.461266920E-03 -7.954359800E-02 5.406951294E+02 -9.318940267E-19 2.653911438E+02 0.000000000E+00
 4.430801570E-01 9.143999815E-01 -9.461266920E-03 -7.954359800E-02 5.406951294E+02 -9.318940267E-19 2.653911438E+02 0.000000000E+00
 4.398006499E-01 9.143999815E-01 -8.852015249E-03 -8.845946938E-02 5.463834839E+02 -1.489879669E-18 2.653537903E+02 0.000000000E+00
 4.398006499E-01 9.143999815E-01 -8.852015249E-03 -8.845946938E-02 5.463834839E+02 -1.489879669E-18 2.653537903E+02 0.000000000E+00
 4.365239441E-01 9.143999815E-01 -8.245970123E-03 -9.408431500E-02 5.501514282E+02 1.829732562E-19 2.653188782E+02 0.000000000E+00
 4.365239441E-01 9.143999815E-01 -8.245970123E-03 -9.408431500E-02 5.501514282E+02 1.829732562E-19 2.653188782E+02 0.000000000E+00
 4.332510233E-01 9.143999815E-01 -7.643192541E-03 -9.942801297E-02 5.538561401E+02 2.977807295E-19 2.652862854E+02 0.000000000E+00
 4.332510233E-01 9.143999815E-01 -7.643192541E-03 -9.942801297E-02 5.538561401E+02 2.977807295E-19 2.652862854E+02 0.000000000E+00
 4.299818873E-01 9.143999815E-01 -7.043688092E-03 -1.073207855E-01 5.591795654E+02 -1.489602874E-18 2.652532349E+02 0.000000000E+00
 4.299818873E-01 9.143999815E-01 -7.043688092E-03 -1.073207855E-01 5.591795654E+02 -1.489602874E-18 2.652532349E+02 0.000000000E+00
 4.267174304E-01 9.143999815E-01 -6.448522210E-03 -1.127872169E-01 5.625819092E+02 1.017066229E-18 2.652203979E+02 0.000000000E+00
 4.267174304E-01 9.143999815E-01 -6.448522210E-03 -1.127872169E-01 5.625819092E+02 1.017066229E-18 2.652203979E+02 0.000000000E+00
 4.234558344E-01 9.143999815E-01 -5.855561234E-03 -1.181898266E-01 5.659569702E+02 1.410251644E-18 2.651884766E+02 0.000000000E+00
 4.234558344E-01 9.143999815E-01 -5.855561234E-03 -1.181898266E-01 5.659569702E+02 1.410251644E-18 2.651884766E+02 0.000000000E+00
 4.201989770E-01 9.143999815E-01 -5.266939756E-03 -1.260194182E-01 5.709838257E+02 7.284274483E-19 2.651557922E+02 0.000000000E+00
 4.201989770E-01 9.143999815E-01 -5.266939756E-03 -1.260194182E-01 5.709838257E+02 7.284274483E-19 2.651557922E+02 0.000000000E+00
 4.169468880E-01 9.143999815E-01 -4.681659862E-03 -1.312701702E-01 5.743359985E+02 -9.893853540E-19 2.651235962E+02 0.000000000E+00
 4.169468880E-01 9.143999815E-01 -4.681659862E-03 -1.312701702E-01 5.743359985E+02 -9.893853540E-19 2.651235962E+02 0.000000000E+00
 4.136985838E-01 9.143999815E-01 -4.099650774E-03 -1.364984363E-01 5.777533569E+02 1.012757239E-18 2.650922852E+02 0.000000000E+00
 4.136985838E-01 9.143999815E-01 -4.099650774E-03 -1.364984363E-01 5.777533569E+02 1.012757239E-18 2.650922852E+02 0.000000000E+00
 4.104549885E-01 9.143999815E-01 -3.521981649E-03 -1.443938911E-01 5.829319458E+02 3.178350514E-19 2.650601196E+02 0.000000000E+00
 4.104549885E-01 9.143999815E-01 -3.521981649E-03 -1.443938911E-01 5.829319458E+02 3.178350514E-19 2.650601196E+02 0.000000000E+00
 4.072161317E-01 9.143999815E-01 -2.947652945E-03 -1.496781409E-01 5.863456421E+02 -1.499518184E-19 2.650290527E+02 0.000000000E+00
 4.072161317E-01 9.143999815E-01 -2.947652945E-03 -1.496781409E-01 5.863456421E+02 -1.499518184E-19 2.650290527E+02 0.000000000E+00
 4.039811790E-01 9.143999815E-01 -2.375600394E-03 -1.547373533E-01 5.896915283E+02 9.226070761E-20 2.650008850E+02 0.000000000E+00
 4.039811790E-01 9.143999815E-01 -2.375600394E-03 -1.547373533E-01 5.896915283E+02 9.226070761E-20 2.650008850E+02 0.000000000E+00
 4.007519186E-01 9.143999815E-01 -1.807955210E-03 -1.597152203E-01 5.929386597E+02 -1.325334368E-19 2.649733582E+02 0.000000000E+00
 4.007519186E-01 9.143999815E-01 -1.807955210E-03 -1.597152203E-01 5.929386597E+02 -1.325334368E-19 2.649733582E+02 0.000000000E+00
 3.975283206E-01 9.143999815E-01 -1.244717161E-03 -1.648337543E-01 5.961264648E+02 -7.515575379E-19 2.649441833E+02 0.000000000E+00
 3.975283206E-01 9.143999815E-01 -1.244717161E-03 -1.648337543E-01 5.961264648E+02 -7.515575379E-19 2.649441833E+02 0.000000000E+00
 3.943086267E-01 9.143999815E-01 -6.837554392E-04 -1.724262238E-01 6.009387817E+02 3.109218894E-19 2.649131470E+02 0.000000000E+00
 3.943086267E-01 9.143999815E-01 -6.837554392E-04 -1.724262238E-01 6.009387817E+02 3.109218894E-19 2.649131470E+02 0.000000000E+00
 3.910956085E-01 9.143999815E-01 -1.272713416E-04 -1.773171723E-01 6.041411743E+02 -1.590624632E-19 2.648827515E+02 0.000000000E+00
 3.910956085E-01 9.143999815E-01 -1.272713416E-04 -1.773171723E-01 6.041411743E+02 -1.590624632E-19 2.648827515E+02 0.000000000E+00
 3.878873885E-01 9.143999815E-01 4.258700646E-04 -1.821499616E-01 6.073333740E+02 -2.613068725E-19 2.648536987E+02 0.000000000E+00
 3.878873885E-01 9.143999815E-01 4.258700646E-04 -1.821499616E-01 6.073333740E+02 -2.613068725E-19 2.648536987E+02 0.000000000E+00
 3.846849501E-01 9.143999815E-01 9.756018408E-04 -1.891896278E-01 6.121483154E+02 -6.162790247E-19 2.648239441E+02 0.000000000E+00
 3.846849501E-01 9.143999815E-01 9.756018408E-04 -1.891896278E-01 6.121483154E+02 -6.162790247E-19 2.648239441E+02 0.000000000E+00
 3.814871907E-01 9.143999815E-01 1.520993421E-03 -1.940532774E-01 6.153103638E+02 -8.642329790E-19 2.647940674E+02 0.000000000E+00
 3.814871907E-01 9.143999815E-01 1.520993421E-03 -1.940532774E-01 6.153103638E+02 -8.642329790E-19 2.647940674E+02 0.000000000E+00
 3.782962859E-01 9.143999815E-01 2.063902561E-03 -1.991502345E-01 6.184494019E+02 -2.452962231E-19 2.647644958E+02 0.000000000E+00
 3.782962859E-01 9.143999815E-01 2.063902561E-03 -1.991502345E-01 6.184494019E+02 -2.452962231E-19 2.647644958E+02 0.000000000E+00
 3.751111031E-01 9.143999815E-01 2.602400724E-03 -2.065249383E-01 6.232138672E+02 -2.795956032E-19 2.647338867E+02 0.000000000E+00
 3.751111031E-01 9.143999815E-01 2.602400724E-03 -2.065249383E-01 6.232138672E+02 -2.795956032E-19 2.647338867E+02 0.000000000E+00
 3.719325960E-01 9.143999815E-01 3.136422951E-03 -2.114285976E-01 6.263607788E+02 4.879339393E-19 2.647040100E+02 0.000000000E+00
 3.719325960E-01 9.143999815E-01 3.136422951E-03 -2.114285976E-01 6.263607788E+02 4.879339393E-19 2.647040100E+02 0.000000000E+00
 3.687589467E-01 9.143999815E-01 3.668100340E-03 -2.165040672E-01 6.294947510E+02 -5.787627133E-19 2.646758423E+02 0.000000000E+00
 3.687589467E-01 9.143999815E-01 3.668100340E-03 -2.165040672E-01 6.294947510E+02 -5.787627133E-19 2.646758423E+02 0.000000000E+00
 3.655929565E-01 9.143999815E-01 4.194231238E-03 -2.214823514E-01 6.326782837E+02 -3.097238217E-19 2.646467896E+02 0.000000000E+00
 3.655929565E-01 9.143999815E-01 4.194231238E-03 -2.214823514E-01 6.326782837E+02 -3.097238217E-19 2.646467896E+02 0.000000000E+00
 3.624327779E-01 9.143999815E-01 4.717948847E-03 -2.289322317E-01 6.374669800E+02 -7.265284484E-19 2.646159973E+02 0.000000000E+00
 3.624327779E-01 9.143999815E-01 4.717948847E-03 -2.289322317E-01 6.374669800E+02 -7.265284484E-19 2.646159973E+02 0.000000000E+00
 3.592793047E-01 9.143999815E-01 5.237190519E-03 -2.340908945E-01 6.406590576E+02 -3.154404411E-19 2.645859680E+02 0.000000000E+00
 3.592793047E-01 9.143999815E-01 5.237190519E-03 -2.340908945E-01 6.406590576E+02 -3.154404411E-19 2.645859680E+02 0.000000000E+00
 3.561326265E-01 9.143999815E-01 5.752946250E-03 -2.390501946E-01 6.438980103E+02 2.687452166E-19 2.645585327E+02 0.000000000E+00
 3.561326265E-01 9.143999815E-01 5.752946250E-03 -2.390501946E-01 6.438980103E+02 2.687452166E-19 2.645585327E+02 0.000000000E+00
 3.529926538E-01 9.143999815E-01 6.264226045E-03 -2.438316643E-01 6.471369019E+02 -2.676951625E-19 2.645317383E+02 0.000000000E+00
 3.529926538E-01 9.143999815E-01 6.264226045E-03 -2.438316643E-01 6.471369019E+02 -2.676951625E-19 2.645317383E+02 0.000000000E+00
 3.498594165E-01 9.143999815E-01 6.772025954E-03 -2.487557530E-01 6.503474731E+02 1.315289035E-19 2.645033569E+02 0.000000000E+00
 3.498594165E-01 9.143999815E-01 6.772025954E-03 -2.487557530E-01 6.503474731E+02 1.315289035E-19 2.645033569E+02 0.000000000E+00
 3.467339873E-01 9.143999815E-01 7.276273333E-03 -2.561108172E-01 6.552421265E+02 -7.869396975E-20 2.644729614E+02 0.000000000E+00
 3.467339873E-01 9.143999815E-01 7.276273333E-03 -2.561108172E-01 6.552421265E+02 -7.869396975E-20 2.644729614E+02 0.000000000E+00
 3.436152637E-01 9.143999815E-01 7.776042912E-03 -2.609871030E-01 6.585321045E+02 -7.789479178E-19 2.644428406E+02 0.000000000E+00
 3.436152637E-01 9.143999815E-01 7.776042912E-03 -2.609871030E-01 6.585321045E+02 -7.789479178E-19 2.644428406E+02 0.000000000E+00
 3.405032158E-01 9.143999815E-01 8.271334693E-03 -2.662881017E-01 6.617987671E+02 -1.423083852E-19 2.644141541E+02 0.000000000E+00
 3.405032158E-01 9.143999815E-01 8.271334693E-03 -2.662881017E-01 6.617987671E+02 -1.423083852E-19 2.644141541E+02 0.000000000E+00
 3.374000490E-01 9.143999815E-01 8.764000610E-03 -2.718335688E-01 6.651171875E+02 9.638234051E-19 2.643849487E+02 0.000000000E+00
 3.374000490E-01 9.143999815E-01 8.764000610E-03 -2.718335688E-01 6.651171875E+02 9.638234051E-19 2.643849487E+02 0.000000000E+00
 3.343034983E-01 9.143999815E-01 9.251193143E-03 -2.771827281E-01 6.685224609E+02 3.608788421E-19 2.643540039E+02 0.000000000E+00
 3.343034983E-01 9.143999815E-01 9.251193143E-03 -2.771827281E-01 6.685224609E+02 3.608788421E-19 2.643540039E+02 0.000000000E+00
 3.312146664E-01 9.143999815E-01 9.734834544E-03 -2.850154936E-01 6.736939697E+02 -3.028807633E-19 2.643217468E+02 0.000000000E+00
 3.312146664E-01 9.143999815E-01 9.734834544E-03 -2.850154936E-01 6.736939697E+02 -3.028807633E-19 2.643217468E+02 0.000000000E+00
 3.281336129E-01 9.143999815E-01 1.021392643E-02 -2.901424468E-01 6.771751099E+02 -7.022038971E-20 2.642910767E+02 0.000000000E+00
 3.281336129E-01 9.143999815E-01 1.021392643E-02 -2.901424468E-01 6.771751099E+02 -7.022038971E-20 2.642910767E+02 0.000000000E+00
 3.250612915E-01 9.143999815E-01 1.068940014E-02 -2.949745059E-01 6.806321411E+02 -1.651454590E-19 2.642635498E+02 0.000000000E+00
 3.250612915E-01 9.143999815E-01 1.068940014E-02 -2.949745059E-01 6.806321411E+02 -1.651454590E-19 2.642635498E+02 0.000000000E+00
 3.219966590E-01 9.143999815E-01 1.116032153E-02 -2.998391092E-01 6.839656372E+02 7.763957619E-21 2.642367249E+02 0.000000000E+00
 3.219966590E-01 9.143999815E-01 1.116032153E-02 -2.998391092E-01 6.839656372E+02 7.763957619E-21 2.642367249E+02 0.000000000E+00
 3.189397454E-01 9.143999815E-01 1.162669901E-02 -3.051593006E-01 6.872225342E+02 -7.810149905E-19 2.642084656E+02 0.000000000E+00
 3.189397454E-01 9.143999815E-01 1.162669901E-02 -3.051593006E-01 6.872225342E+02 -7.810149905E-19 2.642084656E+02 0.000000000E+00
 3.158916235E-01 9.143999815E-01 1.208945271E-02 -3.106659055E-01 6.905653687E+02 2.984157974E-19 2.641779175E+02 0.000000000E+00
 3.158916235E-01 9.143999815E-01 1.208945271E-02 -3.106659055E-01 6.905653687E+02 2.984157974E-19 2.641779175E+02 0.000000000E+00
 3.128511608E-01 9.143999815E-01 1.254766062E-02 -3.184278607E-01 6.957164917E+02 1.388943058E-18 2.641462097E+02 0.000000000E+00
 3.128511608E-01 9.143999815E-01 1.254766062E-02 -3.184278607E-01 6.957164917E+02 1.388943058E-18 2.641462097E+02 0.000000000E+00
 3.098204136E-01 9.143999815E-01 1.300118025E-02 -3.235469460E-01 6.991129150E+02 3.288051724E-19 2.641170044E+02 0.000000000E+00
 3.098204136E-01 9.143999815E-01 1.300118025E-02 -3.235469460E-01 6.991129150E+02 3.288051724E-19 2.641170044E+02 0.000000000E+00
 3.067974448E-01 9.143999815E-01 1.345114689E-02 -3.261395693E-01 7.008228149E+02 -1.229255014E-19 2.640908203E+02 0.000000000E+00
 3.067974448E-01 9.143999815E-01 1.345114689E-02 -3.261395693E-01 7.008228149E+02 -1.229255014E-19 2.640908203E+02 0.000000000E+00
 3.037841022E-01 9.143999815E-01 1.389543060E-02 -3.336692452E-01 7.061047974E+02 -3.092136839E-19 2.640630188E+02 0.000000000E+00
 3.037841022E-01 9.143999815E-01 1.389543060E-02 -3.336692452E-01 7.061047974E+02 -3.092136839E-19 2.640630188E+02 0.000000000E+00
 3.007785380E-01 9.143999815E-01 1.433616318E-02 -3.386299610E-01 7.096370850E+02 2.667638605E-19 2.640331726E+02 0.000000000E+00
 3.007785380E-01 9.143999815E-01 1.433616318E-02 -3.386299610E-01 7.096370850E+02 2.667638605E-19 2.640331726E+02 0.000000000E+00
 2.977826297E-01 9.143999815E-01 1.477220561E-02 -3.440821469E-01 7.130964966E+02 -6.125165807E-20 2.640040283E+02 0.000000000E+00
 2.977826297E-01 9.143999815E-01 1.477220561E-02 -3.440821469E-01 7.130964966E+02 -6.125165807E-20 2.640040283E+02 0.000000000E+00
 2.947964668E-01 9.143999815E-01 1.520356257E-02 -3.497996926E-01 7.166174927E+02 -1.778302737E-19 2.639750671E+02 0.000000000E+00
 2.947964668E-01 9.143999815E-01 1.520356257E-02 -3.497996926E-01 7.166174927E+02 -1.778302737E-19 2.639750671E+02 0.000000000E+00
 2.918179631E-01 9.143999815E-01 1.563037187E-02 -3.551468849E-01 7.202814941E+02 1.799185945E-19 2.639461670E+02 0.000000000E+00
 2.918179631E-01 9.143999815E-01 1.563037187E-02 -3.551468849E-01 7.202814941E+02 1.799185945E-19 2.639461670E+02 0.000000000E+00
 2.888502479E-01 9.143999815E-01 1.605341956E-02 -3.603055477E-01 7.239548950E+02 -2.294201714E-19 2.639172974E+02 0.000000000E+00
 2.888502479E-01 9.143999815E-01 1.605341956E-02 -3.603055477E-01 7.239548950E+02 -2.294201714E-19 2.639172974E+02 0.000000000E+00
 2.858911455E-01 9.143999815E-01 1.647085324E-02 -3.660043776E-01 7.275416870E+02 -6.452363432E-19 2.638874817E+02 0.000000000E+00
 2.858911455E-01 9.143999815E-01 1.647085324E-02 -3.660043776E-01 7.275416870E+02 -6.452363432E-19 2.638874817E+02 0.000000000E+00
 2.829427719E-01 9.143999815E-01 1.688352600E-02 -3.721897900E-01 7.311626587E+02 3.342620312E-19 2.638565369E+02 0.000000000E+00
 2.829427719E-01 9.143999815E-01 1.688352600E-02 -3.721897900E-01 7.311626587E+02 3.342620312E-19 2.638565369E+02 0.000000000E+00
 2.800031304E-01 9.143999815E-01 1.729258150E-02 -3.780947626E-01 7.349284668E+02 1.879174569E-19 2.638255310E+02 0.000000000E+00
 2.800031304E-01 9.143999815E-01 1.729258150E-02 -3.780947626E-01 7.349284668E+02 1.879174569E-19 2.638255310E+02 0.000000000E+00
 2.770741284E-01 9.143999815E-01 1.769588143E-02 -3.835722506E-01 7.387549438E+02 -6.878512795E-20 2.637952881E+02 0.000000000E+00
 2.770741284E-01 9.143999815E-01 1.769588143E-02 -3.835722506E-01 7.387549438E+02 -6.878512795E-20 2.637952881E+02 0.000000000E+00
 2.741538286E-01 9.143999815E-01 1.809456013E-02 -3.891855776E-01 7.425632324E+02 7.110412492E-19 2.637653198E+02 0.000000000E+00
 2.741538286E-01 9.143999815E-01 1.809456013E-02 -3.891855776E-01 7.425632324E+02 7.110412492E-19 2.637653198E+02 0.000000000E+00
 2.712442279E-01 9.143999815E-01 1.848848723E-02 -3.950687051E-01 7.464242554E+02 -1.372170110E-19 2.637351685E+02 0.000000000E+00
 2.712442279E-01 9.143999815E-01 1.848848723E-02 -3.950687051E-01 7.464242554E+02 -1.372170110E-19 2.637351685E+02 0.000000000E+00
 2.683453262E-01 9.143999815E-01 1.887765154E-02 -4.007225931E-01 7.503736572E+02 -1.448209076E-19 2.637051697E+02 0.000000000E+00
 2.683453262E-01 9.143999815E-01 1.887765154E-02 -4.007225931E-01 7.503736572E+02 -1.448209076E-19 2.637051697E+02 0.000000000E+00
 2.654560804E-01 9.143999815E-01 1.926212944E-02 -4.060594141E-01 7.542915039E+02 1.024291962E-18 2.636753845E+02 0.000000000E+00
 2.654560804E-01 9.143999815E-01 1.926212944E-02 -4.060594141E-01 7.542915039E+02 1.024291962E-18 2.636753845E+02 0.000000000E+00
 2.625775635E-01 9.143999815E-01 1.964185014E-02 -4.116943777E-01 7.580917358E+02 -3.717105913E-19 2.636450806E+02 0.000000000E+00
 2.625775635E-01 9.143999815E-01 1.964185014E-02 -4.116943777E-01 7.580917358E+02 -3.717105913E-19 2.636450806E+02 0.000000000E+00
 2.597096860E-01 9.143999815E-01 2.001581527E-02 -4.178913236E-01 7.618832397E+02 -5.415908709E-19 2.636135559E+02 0.000000000E+00
 2.597096860E-01 9.143999815E-01 2.001581527E-02 -4.178913236E-01 7.618832397E+02 -5.415908709E-19 2.636135559E+02 0.000000000E+00
 2.568524480E-01 9.143999815E-01 2.038502321E-02 -4.241183102E-01 7.658477173E+02 3.389539612E-20 2.635814819E+02 0.000000000E+00
 2.568524480E-01 9.143999815E-01 2.038502321E-02 -4.241183102E-01 7.658477173E+02 3.389539612E-20 2.635814819E+02 0.000000000E+00
 2.540059686E-01 9.143999815E-01 2.074947394E-02 -4.298943877E-01 7.699385986E+02 -2.518966332E-19 2.635497131E+02 0.000000000E+00
 2.540059686E-01 9.143999815E-01 2.074947394E-02 -4.298943877E-01 7.699385986E+02 -2.518966332E-19 2.635497131E+02 0.000000000E+00
 2.511701286E-01 9.143999815E-01 2.110916562E-02 -4.356147349E-01 7.739893188E+02 -6.196548521E-19 2.635180054E+02 0.000000000E+00
 2.511701286E-01 9.143999815E-01 2.110916562E-02 -4.356147349E-01 7.739893188E+02 -6.196548521E-19 2.635180054E+02 0.000000000E+00
 2.483449429E-01 9.143999815E-01 2.146310546E-02 -4.418973327E-01 7.780085449E+02 1.135157946E-18 2.634852905E+02 0.000000000E+00
 2.483449429E-01 9.143999815E-01 2.146310546E-02 -4.418973327E-01 7.780085449E+02 1.135157946E-18 2.634852905E+02 0.000000000E+00
 2.455314398E-01 9.143999815E-01 2.181221358E-02 -4.485574663E-01 7.821655273E+02 -8.573632699E-20 2.634516296E+02 0.000000000E+00
 2.455314398E-01 9.143999815E-01 2.181221358E-02 -4.485574663E-01 7.821655273E+02 -8.573632699E-20 2.634516296E+02 0.000000000E+00
 2.427286357E-01 9.143999815E-01 2.215656638E-02 -4.548760056E-01 7.865056763E+02 -5.864134102E-20 2.634182739E+02 0.000000000E+00
 2.427286357E-01 9.143999815E-01 2.215656638E-02 -4.548760056E-01 7.865056763E+02 -5.864134102E-20 2.634182739E+02 0.000000000E+00
 2.399374545E-01 9.143999815E-01 2.249509655E-02 -4.608308673E-01 7.908810425E+02 5.869838029E-19 2.633863831E+02 0.000000000E+00
 2.399374545E-01 9.143999815E-01 2.249509655E-02 -4.608308673E-01 7.908810425E+02 5.869838029E-19 2.633863831E+02 0.000000000E+00
 2.371579558E-01 9.143999815E-01 2.282879688E-02 -4.670826495E-01 7.952095337E+02 6.898830031E-19 2.633564148E+02 0.000000000E+00
 2.371579558E-01 9.143999815E-01 2.282879688E-02 -4.670826495E-01 7.952095337E+02 6.898830031E-19 2.633564148E+02 0.000000000E+00
 2.343890965E-01 9.143999815E-01 2.315674163E-02 -4.704338610E-01 7.973884888E+02 -4.727458693E-19 2.633278198E+02 0.000000000E+00
 2.343890965E-01 9.143999815E-01 2.315674163E-02 -4.704338610E-01 7.973884888E+02 -4.727458693E-19 2.633278198E+02 0.000000000E+00
 2.316329181E-01 9.143999815E-01 2.347978950E-02 -4.772950709E-01 8.018666992E+02 3.897364078E-19 2.632976379E+02 0.000000000E+00
 2.316329181E-01 9.143999815E-01 2.347978950E-02 -4.772950709E-01 8.018666992E+02 3.897364078E-19 2.632976379E+02 0.000000000E+00
 2.288874388E-01 9.143999815E-01 2.379807830E-02 -4.837020040E-01 8.064961548E+02 -1.743205076E-19 2.632647095E+02 0.000000000E+00
 2.288874388E-01 9.143999815E-01 2.379807830E-02 -4.837020040E-01 8.064961548E+02 -1.743205076E-19 2.632647095E+02 0.000000000E+00
 2.261545509E-01 9.143999815E-01 2.411047742E-02 -4.896336794E-01 8.111005859E+02 -6.701405801E-19 2.632314758E+02 0.000000000E+00
 2.261545509E-01 9.143999815E-01 2.411047742E-02 -4.896336794E-01 8.111005859E+02 -6.701405801E-19 2.632314758E+02 0.000000000E+00
 2.234333307E-01 9.143999815E-01 2.441704646E-02 -4.958990514E-01 8.155713501E+02 -6.513118297E-19 2.631984863E+02 0.000000000E+00
 2.234333307E-01 9.143999815E-01 2.441704646E-02 -4.958990514E-01 8.155713501E+02 -6.513118297E-19 2.631984863E+02 0.000000000E+00
 2.207237631E-01 9.143999815E-01 2.471879125E-02 -5.029987097E-01 8.200670776E+02 8.176407902E-19 2.631660767E+02 0.000000000E+00
 2.207237631E-01 9.143999815E-01 2.471879125E-02 -5.029987097E-01 8.200670776E+02 8.176407902E-19 2.631660767E+02 0.000000000E+00
 2.180268317E-01 9.143999815E-01 2.501464076E-02 -5.067301989E-01 8.224061890E+02 7.845827239E-19 2.631348877E+02 0.000000000E+00
 2.180268317E-01 9.143999815E-01 2.501464076E-02 -5.067301989E-01 8.224061890E+02 7.845827239E-19 2.631348877E+02 0.000000000E+00
 2.153425962E-01 9.143999815E-01 2.530559152E-02 -5.139546394E-01 8.272902222E+02 -2.307619618E-19 2.631027832E+02 0.000000000E+00
 2.153425962E-01 9.143999815E-01 2.530559152E-02 -5.139546394E-01 8.272902222E+02 -2.307619618E-19 2.631027832E+02 0.000000000E+00
 2.126699686E-01 9.143999815E-01 2.559071966E-02 -5.204943419E-01 8.322830811E+02 1.241717007E-19 2.630684509E+02 0.000000000E+00
 2.126699686E-01 9.143999815E-01 2.559071966E-02 -5.204943419E-01 8.322830811E+02 1.241717007E-19 2.630684509E+02 0.000000000E+00
 2.100109756E-01 9.143999815E-01 2.586988360E-02 -5.267932415E-01 8.371302490E+02 -7.054079942E-19 2.630343018E+02 0.000000000E+00
 2.100109756E-01 9.143999815E-01 2.586988360E-02 -5.267932415E-01 8.371302490E+02 -7.054079942E-19 2.630343018E+02 0.000000000E+00
 2.073636502E-01 9.143999815E-01 2.614421770E-02 -5.336648822E-01 8.418068237E+02 -1.053857989E-20 2.630014954E+02 0.000000000E+00
 2.073636502E-01 9.143999815E-01 2.614421770E-02 -5.336648822E-01 8.418068237E+02 -1.053857989E-20 2.630014954E+02 0.000000000E+00
 2.047289610E-01 9.143999815E-01 2.641265839E-02 -5.374218225E-01 8.441688232E+02 -2.219589247E-19 2.629692993E+02 0.000000000E+00