#+++++++++++++++++++++++++++++++++++++++++++++++++++++++++++++++++++++++++++++++++++++++++++++++++++++++++++++++++++++++++++++++++
#
#   IPW-3 Final Ice Shape DATA SUBMITTAL FORM for Test Case NACA0012_AE3933, May 18th 2026
#
#       NOMENCLATURE:
#             X_ICED [m]:  X-coordinate of the iced surface
#             Y_ICED [m]:  Y-coordinate of the iced surface
#             Z_ICED [m]:  Z-coordinate of the iced surface
#
#                XXmm:  Roughness height used for the case, in mm.
#                       In the zone name, use the format KS_XXmm.
#                       For example, if k_s = 1.5 mm, use KS_1p5mm. 
#                       For Variable roughness, use KS_VAR
#
#    FLOW CONDITIONS:
#                                   AOA: 4.0 deg
#                           Mach Number: 0.3127 [-]
#       Mean aerodynamic chord (M.A.C.): 0.5334 [m]
#                       Reynolds Number: 3.8947 million (based on MAC)
#                       Freestream Temp: 265.8 [K]
#                        Reference area: 0.97548 [m2]
#               Moment Reference Center: 0.13335, 0, 0 [m] (X, Y, Z)
#
#    ICING CONDITIONS:
#                           Icing Time: 420 [s]
#                                  LWC: 0.55 [g/m3]
#                                  MVD: 20 [μm]
#
#              NOTES: 1. Please use at least 5 decimal places in the numerical values
#                     2. If data are NOT provided, please fill data fields with a numerical value of "-999" 
#
#++++++++++++++++++++++++++++++++++++++++++++++++++++++++++++++++++++++++++++++++++++++++++++++++++++++++++++++++++++

AUXDATA NUM_LAYERS  = "5"
                                              
VARIABLES = "X_ICED" "Y_ICED" "Z_ICED"

ZONE T="SLICE_Y_0p9144_BINS01_KS_1mm_SINGLE_LAYER"
 5.324727297E-01 9.144051075E-01 -2.722525038E-02
 5.324715376E-01 9.144051075E-01 -2.722499892E-02
 5.291487575E-01 9.144051075E-01 -2.652166598E-02
 5.291475654E-01 9.144051075E-01 -2.652141452E-02
 5.258244872E-01 9.144051075E-01 -2.582107112E-02
 5.258232951E-01 9.144051075E-01 -2.582082152E-02
 5.225009918E-01 9.144051075E-01 -2.512454055E-02
 5.224997997E-01 9.144051075E-01 -2.512429282E-02
 5.191771984E-01 9.144051075E-01 -2.443199605E-02
 5.191760063E-01 9.144051075E-01 -2.443175018E-02
 5.158532262E-01 9.144051075E-01 -2.374244854E-02
 5.158520341E-01 9.144051075E-01 -2.374220267E-02
 5.125300288E-01 9.144051075E-01 -2.305595949E-02
 5.125288367E-01 9.144051075E-01 -2.305571549E-02
 5.092074275E-01 9.144051075E-01 -2.237452939E-02
 5.092062354E-01 9.144051075E-01 -2.237428725E-02
 5.058857799E-01 9.144051075E-01 -2.169516496E-02
 5.058845878E-01 9.144051075E-01 -2.169492468E-02
 5.025646687E-01 9.144051075E-01 -2.102085575E-02
 5.025634766E-01 9.144051075E-01 -2.102061547E-02
 4.992444813E-01 9.144051075E-01 -2.034861408E-02
 4.992432892E-01 9.144051075E-01 -2.034837566E-02
 4.959260225E-01 9.144051075E-01 -1.968050189E-02
 4.959248304E-01 9.144051075E-01 -1.968026534E-02
 4.926082492E-01 9.144051075E-01 -1.901644841E-02
 4.926070571E-01 9.144051075E-01 -1.901621185E-02
 4.892912805E-01 9.144051075E-01 -1.835545711E-02
 4.892900884E-01 9.144051075E-01 -1.835522242E-02
 4.859761000E-01 9.144051075E-01 -1.769759879E-02
 4.859749079E-01 9.144051075E-01 -1.769736409E-02
 4.826636910E-01 9.144051075E-01 -1.704294421E-02
 4.826624990E-01 9.144051075E-01 -1.704271138E-02
 4.793519974E-01 9.144051075E-01 -1.639234833E-02
 4.793508053E-01 9.144051075E-01 -1.639211737E-02
 4.760420918E-01 9.144051075E-01 -1.574488357E-02
 4.760408998E-01 9.144051075E-01 -1.574465446E-02
 4.727349281E-01 9.144051075E-01 -1.510161813E-02
 4.727337360E-01 9.144051075E-01 -1.510138903E-02
 4.694295228E-01 9.144051075E-01 -1.446148567E-02
 4.694283307E-01 9.144051075E-01 -1.446125749E-02
 4.661259353E-01 9.144051075E-01 -1.382448711E-02
 4.661247432E-01 9.144051075E-01 -1.382426079E-02
 4.628250599E-01 9.144051075E-01 -1.319068763E-02
 4.628238678E-01 9.144051075E-01 -1.319046225E-02
 4.595270455E-01 9.144051075E-01 -1.256009284E-02
 4.595258534E-01 9.144051075E-01 -1.255986840E-02
 4.562317133E-01 9.144051075E-01 -1.193369552E-02
 4.562305212E-01 9.144051075E-01 -1.193347294E-02
 4.529391527E-01 9.144051075E-01 -1.131050102E-02
 4.529379904E-01 9.144051075E-01 -1.131027937E-02
 4.496503770E-01 9.144051075E-01 -1.069057733E-02
 4.496492147E-01 9.144051075E-01 -1.069035754E-02
 4.463633299E-01 9.144051075E-01 -1.007478498E-02
 4.463621676E-01 9.144051075E-01 -1.007456519E-02
 4.430801570E-01 9.144051075E-01 -9.461266920E-03
 4.430789948E-01 9.144051075E-01 -9.461048990E-03
 4.398006499E-01 9.144051075E-01 -8.852015249E-03
 4.397994876E-01 9.144051075E-01 -8.851798251E-03
 4.365239441E-01 9.144051075E-01 -8.245970123E-03
 4.365227818E-01 9.144051075E-01 -8.245754987E-03
 4.332510233E-01 9.144051075E-01 -7.643192541E-03
 4.332498610E-01 9.144051075E-01 -7.642978337E-03
 4.299818873E-01 9.144051075E-01 -7.043688092E-03
 4.299807250E-01 9.144051075E-01 -7.043475285E-03
 4.267174304E-01 9.144051075E-01 -6.448522210E-03
 4.267162681E-01 9.144051075E-01 -6.448310334E-03
 4.234558344E-01 9.144051075E-01 -5.855561234E-03
 4.234546721E-01 9.144051075E-01 -5.855350755E-03
 4.201989770E-01 9.144051075E-01 -5.266939756E-03
 4.201978147E-01 9.144051075E-01 -5.266730674E-03
 4.169468880E-01 9.144051075E-01 -4.681659862E-03
 4.169457257E-01 9.144051075E-01 -4.681451712E-03
 4.136985838E-01 9.144051075E-01 -4.099650774E-03
 4.136974216E-01 9.144051075E-01 -4.099444021E-03
 4.104549885E-01 9.144051075E-01 -3.521981649E-03
 4.104538262E-01 9.144051075E-01 -3.521776292E-03
 4.072161317E-01 9.144051075E-01 -2.947652945E-03
 4.072149694E-01 9.144051075E-01 -2.947448287E-03
 4.039811790E-01 9.144051075E-01 -2.375600394E-03
 4.039800167E-01 9.144051075E-01 -2.375397366E-03
 4.007519186E-01 9.144051075E-01 -1.807955210E-03
 4.007507563E-01 9.144051075E-01 -1.807753812E-03
 3.975283206E-01 9.144051075E-01 -1.244717161E-03
 3.975271583E-01 9.144051075E-01 -1.244516578E-03
 3.943086267E-01 9.144051075E-01 -6.837554392E-04
 3.943074644E-01 9.144051075E-01 -6.835564272E-04
 3.910956085E-01 9.144051075E-01 -1.272713416E-04
 3.910944760E-01 9.144051075E-01 -1.270735374E-04
 3.878873885E-01 9.144051075E-01 4.258700646E-04
 3.878862560E-01 9.144051075E-01 4.260666610E-04
 3.846849501E-01 9.144051075E-01 9.756018408E-04
 3.846838176E-01 9.144051075E-01 9.757968946E-04
 3.814871907E-01 9.144051075E-01 1.520993421E-03
 3.814860582E-01 9.144051075E-01 1.521187602E-03
 3.782962859E-01 9.144051075E-01 2.063902561E-03
 3.782951534E-01 9.144051075E-01 2.064095112E-03
 3.751111031E-01 9.144051075E-01 2.602400724E-03
 3.751099706E-01 9.144051075E-01 2.602591645E-03
 3.719325960E-01 9.144051075E-01 3.136422951E-03
 3.719314635E-01 9.144051075E-01 3.136613173E-03
 3.687589467E-01 9.144051075E-01 3.668100340E-03
 3.687578142E-01 9.144051075E-01 3.668288467E-03
 3.655929565E-01 9.144051075E-01 4.194231238E-03
 3.655918241E-01 9.144051075E-01 4.194418434E-03
 3.624327779E-01 9.144051075E-01 4.717948847E-03
 3.624316454E-01 9.144051075E-01 4.718134645E-03
 3.592793047E-01 9.144051075E-01 5.237190519E-03
 3.592781723E-01 9.144051075E-01 5.237374920E-03
 3.561326265E-01 9.144051075E-01 5.752946250E-03
 3.561314940E-01 9.144051075E-01 5.753129255E-03
 3.529926538E-01 9.144051075E-01 6.264226045E-03
 3.529915214E-01 9.144051075E-01 6.264407653E-03
 3.498594165E-01 9.144051075E-01 6.772025954E-03
 3.498582840E-01 9.144051075E-01 6.772206165E-03
 3.467339873E-01 9.144051075E-01 7.276273333E-03
 3.467328846E-01 9.144051075E-01 7.276452146E-03
 3.436152637E-01 9.144051075E-01 7.776042912E-03
 3.436141610E-01 9.144051075E-01 7.776219863E-03
 3.405032158E-01 9.144051075E-01 8.271334693E-03
 3.405021131E-01 9.144051075E-01 8.271510713E-03
 3.374000490E-01 9.144051075E-01 8.764000610E-03
 3.373989463E-01 9.144051075E-01 8.764174767E-03
 3.343034983E-01 9.144051075E-01 9.251193143E-03
 3.343023956E-01 9.144051075E-01 9.251366369E-03
 3.312146664E-01 9.144051075E-01 9.734834544E-03
 3.312135637E-01 9.144051075E-01 9.735005908E-03
 3.281336129E-01 9.144051075E-01 1.021392643E-02
 3.281325102E-01 9.144051075E-01 1.021409687E-02
 3.250612915E-01 9.144051075E-01 1.068940014E-02
 3.250601888E-01 9.144051075E-01 1.068956871E-02
 3.219966590E-01 9.144051075E-01 1.116032153E-02
 3.219955564E-01 9.144051075E-01 1.116048824E-02
 3.189397454E-01 9.144051075E-01 1.162669901E-02
 3.189386427E-01 9.144051075E-01 1.162686478E-02
 3.158916235E-01 9.144051075E-01 1.208945271E-02
 3.158905506E-01 9.144051075E-01 1.208961662E-02
 3.128511608E-01 9.144051075E-01 1.254766062E-02
 3.128500879E-01 9.144051075E-01 1.254782267E-02
 3.098204136E-01 9.144051075E-01 1.300118025E-02
 3.098193407E-01 9.144051075E-01 1.300134137E-02
 3.067974448E-01 9.144051075E-01 1.345114689E-02
 3.067963719E-01 9.144051075E-01 1.345130615E-02
 3.037841022E-01 9.144051075E-01 1.389543060E-02
 3.037830293E-01 9.144051075E-01 1.389558800E-02
 3.007785380E-01 9.144051075E-01 1.433616318E-02
 3.007774651E-01 9.144051075E-01 1.433631871E-02
 2.977826297E-01 9.144051075E-01 1.477220561E-02
 2.977815568E-01 9.144051075E-01 1.477236021E-02
 2.947964668E-01 9.144051075E-01 1.520356257E-02
 2.947953939E-01 9.144051075E-01 1.520371530E-02
 2.918179631E-01 9.144051075E-01 1.563037187E-02
 2.918168902E-01 9.144051075E-01 1.563052274E-02
 2.888502479E-01 9.144051075E-01 1.605341956E-02
 2.888491750E-01 9.144051075E-01 1.605356857E-02
 2.858911455E-01 9.144051075E-01 1.647085324E-02
 2.858901024E-01 9.144051075E-01 1.647100039E-02
 2.829427719E-01 9.144051075E-01 1.688352600E-02
 2.829417288E-01 9.144051075E-01 1.688367315E-02
 2.800031304E-01 9.144051075E-01 1.729258150E-02
 2.800020874E-01 9.144051075E-01 1.729272492E-02
 2.770741284E-01 9.144051075E-01 1.769588143E-02
 2.770730853E-01 9.144051075E-01 1.769602485E-02
 2.741538286E-01 9.144051075E-01 1.809456013E-02
 2.741527855E-01 9.144051075E-01 1.809470169E-02
 2.712442279E-01 9.144051075E-01 1.848848723E-02
 2.712431848E-01 9.144051075E-01 1.848862693E-02
 2.683453262E-01 9.144051075E-01 1.887765154E-02
 2.683442831E-01 9.144051075E-01 1.887778938E-02
 2.654560804E-01 9.144051075E-01 1.926212944E-02
 2.654550374E-01 9.144051075E-01 1.926226541E-02
 2.625775635E-01 9.144051075E-01 1.964185014E-02
 2.625765502E-01 9.144051075E-01 1.964198425E-02
 2.597096860E-01 9.144051075E-01 2.001581527E-02
 2.597086728E-01 9.144051075E-01 2.001594752E-02
 2.568524480E-01 9.144051075E-01 2.038502321E-02
 2.568514347E-01 9.144051075E-01 2.038515359E-02
 2.540059686E-01 9.144051075E-01 2.074947394E-02
 2.540049553E-01 9.144051075E-01 2.074960247E-02
 2.511701286E-01 9.144051075E-01 2.110916562E-02
 2.511691153E-01 9.144051075E-01 2.110929228E-02
 2.483449429E-01 9.144051075E-01 2.146310546E-02
 2.483439296E-01 9.144051075E-01 2.146323025E-02
 2.455314398E-01 9.144051075E-01 2.181221358E-02
 2.455304414E-01 9.144051075E-01 2.181233652E-02
 2.427286357E-01 9.144051075E-01 2.215656638E-02
 2.427276373E-01 9.144051075E-01 2.215668745E-02
 2.399374545E-01 9.144051075E-01 2.249509655E-02
 2.399364561E-01 9.144051075E-01 2.249521576E-02
 2.371579558E-01 9.144051075E-01 2.282879688E-02
 2.371569723E-01 9.144051075E-01 2.282891423E-02
 2.343890965E-01 9.144051075E-01 2.315674163E-02
 2.343881130E-01 9.144051075E-01 2.315685712E-02
 2.316329181E-01 9.144051075E-01 2.347978950E-02
 2.316319346E-01 9.144051075E-01 2.347990312E-02
 2.288874388E-01 9.144051075E-01 2.379807830E-02
 2.288864553E-01 9.144051075E-01 2.379819006E-02
 2.261545509E-01 9.144051075E-01 2.411047742E-02
 2.261535823E-01 9.144051075E-01 2.411058731E-02
 2.234333307E-01 9.144051075E-01 2.441704646E-02
 2.234323621E-01 9.144051075E-01 2.441715449E-02
 2.207237631E-01 9.144051075E-01 2.471879125E-02
 2.207227945E-01 9.144051075E-01 2.471889742E-02
 2.180268317E-01 9.144051075E-01 2.501464076E-02
 2.180258781E-01 9.144051075E-01 2.501474507E-02
 2.153425962E-01 9.144051075E-01 2.530559152E-02
 2.153416425E-01 9.144051075E-01 2.530569397E-02
 2.126699686E-01 9.144051075E-01 2.559071966E-02
 2.126690149E-01 9.144051075E-01 2.559082024E-02
 2.100109756E-01 9.144051075E-01 2.586988360E-02
 2.100100219E-01 9.144051075E-01 2.586998232E-02
 2.073636502E-01 9.144051075E-01 2.614421770E-02
 2.073627114E-01 9.144051075E-01 2.614431456E-02
 2.047289610E-01 9.144051075E-01 2.641265839E-02
 2.047280222E-01 9.144051075E-01 2.641275153E-02
 2.021068782E-01 9.144051075E-01 2.667520754E-02
 2.021059394E-01 9.144051075E-01 2.667529881E-02
 1.994984299E-01 9.144051075E-01 2.693178691E-02
 1.994975060E-01 9.144051075E-01 2.693187632E-02
 1.969026625E-01 9.144051075E-01 2.718346938E-02
 1.969017386E-01 9.144051075E-01 2.718355693E-02
 1.943205148E-01 9.144051075E-01 2.742919326E-02
 1.943195909E-01 9.144051075E-01 2.742927894E-02
 1.917510629E-01 9.144051075E-01 2.767001465E-02
 1.917501539E-01 9.144051075E-01 2.767009847E-02
 1.891941577E-01 9.144051075E-01 2.790394425E-02
 1.891932487E-01 9.144051075E-01 2.790402621E-02
 1.866519302E-01 9.144051075E-01 2.813283913E-02
 1.866510212E-01 9.144051075E-01 2.813291922E-02
 1.841223240E-01 9.144051075E-01 2.835583687E-02
 1.841214299E-01 9.144051075E-01 2.835591510E-02
 1.816073358E-01 9.144051075E-01 2.857280336E-02
 1.816064417E-01 9.144051075E-01 2.857287973E-02
 1.791049540E-01 9.144051075E-01 2.878387645E-02
 1.791040599E-01 9.144051075E-01 2.878395095E-02
 1.766172647E-01 9.144051075E-01 2.898990922E-02
 1.766163856E-01 9.144051075E-01 2.898998000E-02
 1.741431206E-01 9.144051075E-01 2.918898128E-02
 1.741422415E-01 9.144051075E-01 2.918905020E-02
 1.716826707E-01 9.144051075E-01 2.938308753E-02
 1.716817915E-01 9.144051075E-01 2.938315459E-02
 1.692368388E-01 9.144051075E-01 2.957115695E-02
 1.692359746E-01 9.144051075E-01 2.957122214E-02
 1.668046117E-01 9.144051075E-01 2.975326404E-02
 1.668037474E-01 9.144051075E-01 2.975332737E-02
 1.643870026E-01 9.144051075E-01 2.992933616E-02
 1.643861383E-01 9.144051075E-01 2.992939763E-02
 1.619840115E-01 9.144051075E-01 3.009937517E-02
 1.619831622E-01 9.144051075E-01 3.009943478E-02
 1.595956981E-01 9.144051075E-01 3.026437759E-02
 1.595948488E-01 9.144051075E-01 3.026443347E-02
 1.572209448E-01 9.144051075E-01 3.042241931E-02
 1.572200954E-01 9.144051075E-01 3.042247333E-02
 1.548617929E-01 9.144051075E-01 3.057435341E-02
 1.548609585E-01 9.144051075E-01 3.057440557E-02
 1.525173336E-01 9.144051075E-01 3.072125465E-02
 1.525164992E-01 9.144051075E-01 3.072130494E-02
 1.501874775E-01 9.144051075E-01 3.086211719E-02
 1.501866430E-01 9.144051075E-01 3.086216561E-02
 1.478732526E-01 9.144051075E-01 3.099687770E-02
 1.478724331E-01 9.144051075E-01 3.099692427E-02
 1.455726326E-01 9.144051075E-01 3.112567775E-02
 1.455718130E-01 9.144051075E-01 3.112572245E-02
 1.432886124E-01 9.144051075E-01 3.124829754E-02
 1.432878077E-01 9.144051075E-01 3.124833852E-02
 1.410192251E-01 9.144051075E-01 3.136488795E-02
 1.410184205E-01 9.144051075E-01 3.136492893E-02
 1.387654394E-01 9.144051075E-01 3.147537634E-02
 1.387646347E-01 9.144051075E-01 3.147541359E-02
 1.365262717E-01 9.144051075E-01 3.157982603E-02
 1.365254819E-01 9.144051075E-01 3.157986328E-02
 1.343027800E-01 9.144051075E-01 3.167917207E-02
 1.343019903E-01 9.144051075E-01 3.167920560E-02
 1.320959181E-01 9.144051075E-01 3.177233785E-02
 1.320951283E-01 9.144051075E-01 3.177236766E-02
 1.299035698E-01 9.144051075E-01 3.185848147E-02
 1.299027950E-01 9.144051075E-01 3.185851127E-02
 1.277279258E-01 9.144051075E-01 3.193944320E-02
 1.277271509E-01 9.144051075E-01 3.193946928E-02
 1.255678833E-01 9.144051075E-01 3.201430291E-02
 1.255671233E-01 9.144051075E-01 3.201432899E-02
 1.234235242E-01 9.144051075E-01 3.208405524E-02
 1.234227642E-01 9.144051075E-01 3.208407760E-02
 1.212947071E-01 9.144051075E-01 3.214670718E-02
 1.212939546E-01 9.144051075E-01 3.214672953E-02
 1.191825718E-01 9.144051075E-01 3.220418096E-02
 1.191818193E-01 9.144051075E-01 3.220419958E-02
 1.170870513E-01 9.144051075E-01 3.225548193E-02
 1.170863062E-01 9.144051075E-01 3.225549683E-02
 1.150071397E-01 9.144051075E-01 3.230068088E-02
 1.150064021E-01 9.144051075E-01 3.230069578E-02
 1.129438281E-01 9.144051075E-01 3.233970329E-02
 1.129430979E-01 9.144051075E-01 3.233971447E-02
 1.108971387E-01 9.144051075E-01 3.237255290E-02
 1.108964160E-01 9.144051075E-01 3.237256408E-02
 1.088661253E-01 9.144051075E-01 3.240029886E-02
 1.088654026E-01 9.144051075E-01 3.240030631E-02
 1.068527251E-01 9.144051075E-01 3.242179751E-02
 1.068520099E-01 9.144051075E-01 3.242180496E-02
 1.048559994E-01 9.144051075E-01 3.243812174E-02
 1.048552915E-01 9.144051075E-01 3.243812546E-02
 1.028758734E-01 9.144051075E-01 3.244827315E-02
 1.028751731E-01 9.144051075E-01 3.244827315E-02
 1.009123772E-01 9.144051075E-01 3.245224804E-02
 1.009116843E-01 9.144051075E-01 3.245224804E-02
 9.896547347E-02 9.144051075E-01 3.245005384E-02
 9.896478057E-02 9.144051075E-01 3.245005012E-02
 9.703625739E-02 9.144051075E-01 3.244261071E-02
 9.703557193E-02 9.144051075E-01 3.244260699E-02
 9.512364864E-02 9.144051075E-01 3.242899477E-02
 9.512297064E-02 9.144051075E-01 3.242898732E-02
 9.322872013E-02 9.144051075E-01 3.241013363E-02
 9.322804958E-02 9.144051075E-01 3.241012618E-02
 9.135039896E-02 9.144051075E-01 3.238509595E-02
 9.134973586E-02 9.144051075E-01 3.238508478E-02
 8.948975056E-02 9.144051075E-01 3.235481679E-02
 8.948909491E-02 9.144051075E-01 3.235480189E-02
 8.764671534E-02 9.144051075E-01 3.231829032E-02
 8.764605969E-02 9.144051075E-01 3.231827542E-02
 8.582135290E-02 9.144051075E-01 3.227651864E-02
 8.582070470E-02 9.144051075E-01 3.227650002E-02
 8.401267231E-02 9.144051075E-01 3.222956881E-02
 8.401203156E-02 9.144051075E-01 3.222955018E-02
 8.222259581E-02 9.144051075E-01 3.217630833E-02
 8.222196251E-02 9.144051075E-01 3.217628598E-02
 8.044912666E-02 9.144051075E-01 3.211687878E-02
 8.044850081E-02 9.144051075E-01 3.211685643E-02
 7.869433612E-02 9.144051075E-01 3.205212578E-02
 7.869371772E-02 9.144051075E-01 3.205209970E-02
 7.695722580E-02 9.144051075E-01 3.198213130E-02
 7.695660740E-02 9.144051075E-01 3.198210523E-02
 7.523778826E-02 9.144051075E-01 3.190689161E-02
 7.523717731E-02 9.144051075E-01 3.190686181E-02
 7.353602350E-02 9.144051075E-01 3.182640299E-02
 7.353542000E-02 9.144051075E-01 3.182637319E-02
 7.185287029E-02 9.144051075E-01 3.173960373E-02
 7.185227424E-02 9.144051075E-01 3.173957020E-02
 7.018739730E-02 9.144051075E-01 3.164755553E-02
 7.018680871E-02 9.144051075E-01 3.164752200E-02
 6.854058802E-02 9.144051075E-01 3.155019507E-02
 6.854000688E-02 9.144051075E-01 3.155015782E-02
 6.691146642E-02 9.144051075E-01 3.144758567E-02
 6.691089272E-02 9.144051075E-01 3.144754842E-02
 6.530101597E-02 9.144051075E-01 3.133966029E-02
 6.530044973E-02 9.144051075E-01 3.133961931E-02
 6.370923668E-02 9.144051075E-01 3.122642264E-02
 6.370867044E-02 9.144051075E-01 3.122637980E-02
 6.213513762E-02 9.144051075E-01 3.110793978E-02
 6.213458255E-02 9.144051075E-01 3.110789508E-02
 6.057971343E-02 9.144051075E-01 3.098413907E-02
 6.057916209E-02 9.144051075E-01 3.098409250E-02
 5.904296413E-02 9.144051075E-01 3.085502051E-02
 5.904242024E-02 9.144051075E-01 3.085497208E-02
 5.752588436E-02 9.144051075E-01 3.072051890E-02
 5.752534792E-02 9.144051075E-01 3.072046861E-02
 5.602648482E-02 9.144051075E-01 3.058077395E-02
 5.602595583E-02 9.144051075E-01 3.058072180E-02
 5.454583094E-02 9.144051075E-01 3.043670766E-02
 5.454530939E-02 9.144051075E-01 3.043665364E-02
 5.308377743E-02 9.144051075E-01 3.028632887E-02
 5.308326334E-02 9.144051075E-01 3.028627299E-02
 5.164146796E-02 9.144051075E-01 3.013156168E-02
 5.164095759E-02 9.144051075E-01 3.013150394E-02
 5.021690577E-02 9.144051075E-01 2.997254580E-02
 5.021640286E-02 9.144051075E-01 2.997248620E-02
 4.881301150E-02 9.144051075E-01 2.980807610E-02
 4.881251603E-02 9.144051075E-01 2.980801463E-02
 4.742679745E-02 9.144051075E-01 2.963835932E-02
 4.742630944E-02 9.144051075E-01 2.963829599E-02
 4.606025293E-02 9.144051075E-01 2.946325950E-02
 4.605977237E-02 9.144051075E-01 2.946319617E-02
 4.471245408E-02 9.144051075E-01 2.928384021E-02
 4.471198097E-02 9.144051075E-01 2.928377502E-02
 4.338439927E-02 9.144051075E-01 2.910003252E-02
 4.338392988E-02 9.144051075E-01 2.909996547E-02
 4.207501933E-02 9.144051075E-01 2.891090885E-02
 4.207455739E-02 9.144051075E-01 2.891083993E-02
 4.078537598E-02 9.144051075E-01 2.871740051E-02
 4.078492150E-02 9.144051075E-01 2.871732973E-02
 3.951540962E-02 9.144051075E-01 2.851850353E-02
 3.951496258E-02 9.144051075E-01 2.851843089E-02
 3.826518357E-02 9.144051075E-01 2.831521817E-02
 3.826474398E-02 9.144051075E-01 2.831514366E-02
 3.703369945E-02 9.144051075E-01 2.810761705E-02
 3.703326732E-02 9.144051075E-01 2.810754068E-02
 3.582196310E-02 9.144051075E-01 2.789562754E-02
 3.582153842E-02 9.144051075E-01 2.789554931E-02
 3.462989628E-02 9.144051075E-01 2.767825313E-02
 3.462947533E-02 9.144051075E-01 2.767817490E-02
 3.345664218E-02 9.144051075E-01 2.745755762E-02
 3.345622867E-02 9.144051075E-01 2.745747752E-02
 3.230405971E-02 9.144051075E-01 2.723140642E-02
 3.230365366E-02 9.144051075E-01 2.723132446E-02
 3.117121756E-02 9.144051075E-01 2.700086683E-02
 3.117081895E-02 9.144051075E-01 2.700078301E-02
 3.005811758E-02 9.144051075E-01 2.676594257E-02
 3.005772643E-02 9.144051075E-01 2.676585689E-02
 2.896476164E-02 9.144051075E-01 2.652662620E-02
 2.896437794E-02 9.144051075E-01 2.652653866E-02
 2.789121680E-02 9.144051075E-01 2.628392167E-02
 2.789084055E-02 9.144051075E-01 2.628383227E-02
 2.683734335E-02 9.144051075E-01 2.603583410E-02
 2.683697455E-02 9.144051075E-01 2.603574470E-02
 2.580420859E-02 9.144051075E-01 2.578328550E-02
 2.580384538E-02 9.144051075E-01 2.578319423E-02
 2.478989027E-02 9.144051075E-01 2.552741766E-02
 2.478953451E-02 9.144051075E-01 2.552732453E-02
 2.379631065E-02 9.144051075E-01 2.526709251E-02
 2.379596233E-02 9.144051075E-01 2.526699752E-02
 2.282346971E-02 9.144051075E-01 2.500230819E-02
 2.282312885E-02 9.144051075E-01 2.500221319E-02
 2.186944522E-02 9.144051075E-01 2.473420464E-02
 2.186911181E-02 9.144051075E-01 2.473410591E-02
 2.093708515E-02 9.144051075E-01 2.446057834E-02
 2.093675919E-02 9.144051075E-01 2.446047962E-02
 2.002360672E-02 9.144051075E-01 2.418463305E-02
 2.002328821E-02 9.144051075E-01 2.418453246E-02
 1.913079247E-02 9.144051075E-01 2.390326560E-02
 1.913048141E-02 9.144051075E-01 2.390316315E-02
 1.825873740E-02 9.144051075E-01 2.361857146E-02
 1.825843193E-02 9.144051075E-01 2.361846901E-02
 1.740627550E-02 9.144051075E-01 2.333111688E-02
 1.740597747E-02 9.144051075E-01 2.333101258E-02
 1.657358184E-02 9.144051075E-01 2.304185182E-02
 1.657328941E-02 9.144051075E-01 2.304175124E-02
 1.575697772E-02 9.144051075E-01 2.275892347E-02
 1.575668901E-02 9.144051075E-01 2.275883034E-02
 1.494943351E-02 9.144051075E-01 2.250066586E-02
 1.494914200E-02 9.144051075E-01 2.250059694E-02
 1.413339283E-02 9.144051075E-01 2.230868302E-02
 1.413307711E-02 9.144051075E-01 2.230868489E-02
 1.324975956E-02 9.144051075E-01 2.231276408E-02
 1.324933954E-02 9.144051075E-01 2.231301181E-02
 1.207398437E-02 9.144051075E-01 2.300587669E-02
 1.207324676E-02 9.144051075E-01 2.300680988E-02
 1.001168322E-02 9.144051075E-01 2.561707795E-02
 1.001035329E-02 9.144051075E-01 2.561918646E-02
 6.291596685E-03 9.144051075E-01 3.151528537E-02
 6.290097255E-03 9.144051075E-01 3.151756898E-02
 2.098683035E-03 9.144051075E-01 3.789704666E-02
 2.097925870E-03 9.144051075E-01 3.789769486E-02
 -1.886557766E-05 9.144051075E-01 3.971467167E-02
 -1.912790140E-05 9.144051075E-01 3.971432149E-02
 -7.524397806E-04 9.144051075E-01 3.873281926E-02
 -7.526724366E-04 9.144051075E-01 3.873243555E-02
 -1.402984490E-03 9.144051075E-01 3.765758872E-02
 -1.403177273E-03 9.144051075E-01 3.765714914E-02
 -1.942063333E-03 9.144051075E-01 3.642351180E-02
 -1.942270086E-03 9.144051075E-01 3.642311692E-02
 -2.520341659E-03 9.144051075E-01 3.531570733E-02
 -2.520616632E-03 9.144051075E-01 3.531543165E-02
 -3.289174056E-03 9.144051075E-01 3.454381227E-02
 -3.289448330E-03 9.144051075E-01 3.454353660E-02
 -4.056097474E-03 9.144051075E-01 3.377786651E-02
 -4.056288861E-03 9.144051075E-01 3.377748653E-02
 -4.591612611E-03 9.144051075E-01 3.271444142E-02
 -4.591714125E-03 9.144051075E-01 3.271394596E-02
 -4.875564482E-03 9.144051075E-01 3.133246303E-02
 -4.875682294E-03 9.144051075E-01 3.133200482E-02
 -5.205150694E-03 9.144051075E-01 3.005492687E-02
 -5.205333233E-03 9.144051075E-01 3.005457856E-02
 -5.716254469E-03 9.144051075E-01 2.907921188E-02
 -5.716385785E-03 9.144051075E-01 2.907881327E-02
 -6.083357148E-03 9.144051075E-01 2.796548232E-02
 -6.083384156E-03 9.144051075E-01 2.796497755E-02
 -6.158525124E-03 9.144051075E-01 2.655316330E-02
 -6.158565637E-03 9.144051075E-01 2.655270323E-02
 -6.271367427E-03 9.144051075E-01 2.526720427E-02
 -6.271494087E-03 9.144051075E-01 2.526684478E-02
 -6.625633687E-03 9.144051075E-01 2.426213771E-02
 -6.625703536E-03 9.144051075E-01 2.426173910E-02
 -6.820764858E-03 9.144051075E-01 2.314537019E-02
 -6.820708513E-03 9.144051075E-01 2.314488962E-02
 -6.663226057E-03 9.144051075E-01 2.180316299E-02
 -6.663191132E-03 9.144051075E-01 2.180272341E-02
 -6.565958727E-03 9.144051075E-01 2.057510056E-02
 -6.566021591E-03 9.144051075E-01 2.057475038E-02
 -6.741893943E-03 9.144051075E-01 1.959786378E-02
 -6.741897669E-03 9.144051075E-01 1.959749125E-02
 -6.752600893E-03 9.144051075E-01 1.855487749E-02
 -6.752479821E-03 9.144051075E-01 1.855444722E-02
 -6.413605064E-03 9.144051075E-01 1.735158265E-02
 -6.413518451E-03 9.144051075E-01 1.735119708E-02
 -6.170929875E-03 9.144051075E-01 1.627298445E-02
 -6.170983892E-03 9.144051075E-01 1.627268828E-02
 -6.321914494E-03 9.144051075E-01 1.544506382E-02
 -6.322005298E-03 9.144051075E-01 1.544478815E-02
 -6.576151121E-03 9.144051075E-01 1.467302348E-02
 -6.576187443E-03 9.144051075E-01 1.467272546E-02
 -6.677105557E-03 9.144051075E-01 1.384013332E-02
 -6.677014753E-03 9.144051075E-01 1.383980550E-02
 -6.423274986E-03 9.144051075E-01 1.292267721E-02
 -6.423050072E-03 9.144051075E-01 1.292234194E-02
 -5.794680212E-03 9.144051075E-01 1.198399812E-02
 -5.794496275E-03 9.144051075E-01 1.198369451E-02
 -5.280343816E-03 9.144051075E-01 1.113396324E-02
 -5.280300044E-03 9.144051075E-01 1.113369968E-02
 -5.157997832E-03 9.144051075E-01 1.039728615E-02
 -5.157965701E-03 9.144051075E-01 1.039703283E-02
 -5.067867227E-03 9.144051075E-01 9.689608589E-03
 -5.067732185E-03 9.144051075E-01 9.689358063E-03
 -4.689715337E-03 9.144051075E-01 8.990008384E-03
 -4.689474124E-03 9.144051075E-01 8.989773691E-03
 -4.015663173E-03 9.144051075E-01 8.334083483E-03
 -4.015461076E-03 9.144051075E-01 8.333869278E-03
 -3.450780176E-03 9.144051075E-01 7.735726889E-03
 -3.450702177E-03 9.144051075E-01 7.735517342E-03
 -3.232897259E-03 9.144051075E-01 7.150287274E-03
 -3.232851392E-03 9.144051075E-01 7.150074467E-03
 -3.104394767E-03 9.144051075E-01 6.555152591E-03
 -3.104313975E-03 9.144051075E-01 6.554948166E-03
 -2.878316911E-03 9.144051075E-01 5.983952433E-03
 -2.878164174E-03 9.144051075E-01 5.983773153E-03
 -2.451173961E-03 9.144051075E-01 5.482305307E-03
 -2.450951608E-03 9.144051075E-01 5.482157692E-03
 -1.829432906E-03 9.144051075E-01 5.069530103E-03
 -1.829239074E-03 9.144051075E-01 5.069385283E-03
 -1.287483494E-03 9.144051075E-01 4.664159380E-03
 -1.287371968E-03 9.144051075E-01 4.663989879E-03
 -9.754681960E-04 9.144051075E-01 4.190669395E-03
 -9.753782651E-04 9.144051075E-01 4.190491512E-03
 -7.240416599E-04 9.144051075E-01 3.693481907E-03
 -7.239358965E-04 9.144051075E-01 3.693310311E-03
 -4.282634764E-04 9.144051075E-01 3.213649383E-03
 -4.281412694E-04 9.144051075E-01 3.213485936E-03
 -8.655127749E-05 9.144051075E-01 2.756868023E-03
 -8.642869943E-05 9.144051075E-01 2.756704576E-03
 2.562244481E-04 9.144051075E-01 2.299823565E-03
 2.563349553E-04 9.144051075E-01 2.299648942E-03
 5.652830587E-04 9.144051075E-01 1.811325317E-03
 5.653815460E-04 9.144051075E-01 1.811137190E-03
 8.407191490E-04 9.144051075E-01 1.285386505E-03
 8.408108843E-04 9.144051075E-01 1.285186619E-03
 1.097192056E-03 9.144051075E-01 7.265816093E-04
 1.097301487E-03 9.144051075E-01 7.263869629E-04
 1.403211383E-03 9.144051075E-01 1.823394996E-04
 1.403348753E-03 9.144051075E-01 1.821633487E-04
 1.787270070E-03 9.144051075E-01 -3.102600458E-04
 1.787420246E-03 9.144051075E-01 -3.104305652E-04
 2.207378624E-03 9.144051075E-01 -7.871077396E-04
 2.207531827E-03 9.144051075E-01 -7.872828282E-04
 2.636090852E-03 9.144051075E-01 -1.276748488E-03
 2.636245685E-03 9.144051075E-01 -1.276928000E-03
 3.068786580E-03 9.144051075E-01 -1.778591308E-03
 3.068949329E-03 9.144051075E-01 -1.778769307E-03
 3.524146741E-03 9.144051075E-01 -2.276274608E-03
 3.524320433E-03 9.144051075E-01 -2.276449231E-03
 4.009682219E-03 9.144051075E-01 -2.764775185E-03
 4.009861499E-03 9.144051075E-01 -2.764951671E-03
 4.510422237E-03 9.144051075E-01 -3.258342622E-03
 4.510610364E-03 9.144051075E-01 -3.258516546E-03
 5.036920309E-03 9.144051075E-01 -3.744638292E-03
 5.037120543E-03 9.144051075E-01 -3.744806396E-03
 5.596341565E-03 9.144051075E-01 -4.214534070E-03
 5.596545525E-03 9.144051075E-01 -4.214704968E-03
 6.166244857E-03 9.144051075E-01 -4.692442250E-03
 6.166450679E-03 9.144051075E-01 -4.692621995E-03
 6.741432939E-03 9.144051075E-01 -5.194816273E-03
 6.741645746E-03 9.144051075E-01 -5.194995087E-03
 7.335894741E-03 9.144051075E-01 -5.695048720E-03
 7.336115930E-03 9.144051075E-01 -5.695226137E-03
 7.954513654E-03 9.144051075E-01 -6.191326771E-03
 7.954739034E-03 9.144051075E-01 -6.191511173E-03
 8.584592491E-03 9.144051075E-01 -6.706458516E-03
 8.584824391E-03 9.144051075E-01 -6.706641521E-03
 9.232541546E-03 9.144051075E-01 -7.218759041E-03
 9.232783690E-03 9.144051075E-01 -7.218939718E-03
 9.909551591E-03 9.144051075E-01 -7.723721210E-03
 9.909797460E-03 9.144051075E-01 -7.723908406E-03
 1.059788465E-02 9.144051075E-01 -8.246877231E-03
 1.059813984E-02 9.144051075E-01 -8.247058839E-03
 1.131179929E-02 9.144051075E-01 -8.755561896E-03