#+++++++++++++++++++++++++++++++++++++++++++++++++++++++++++++++++++++++++++++++++++++++++++++++++++++++++++++++++++++++++++++++++
#
#   IPW-3 Final Ice Shape DATA SUBMITTAL FORM for Test Case NACA0012_AE3933, May 18th 2026
#
#       NOMENCLATURE:
#             X_ICED [m]:  X-coordinate of the iced surface
#             Y_ICED [m]:  Y-coordinate of the iced surface
#             Z_ICED [m]:  Z-coordinate of the iced surface
#
#                XXmm:  Roughness height used for the case, in mm.
#                       In the zone name, use the format KS_XXmm.
#                       For example, if k_s = 1.5 mm, use KS_1p5mm. 
#                       For Variable roughness, use KS_VAR
#
#    FLOW CONDITIONS:
#                                   AOA: 4.0 deg
#                           Mach Number: 0.3127 [-]
#       Mean aerodynamic chord (M.A.C.): 0.5334 [m]
#                       Reynolds Number: 3.8947 million (based on MAC)
#                       Freestream Temp: 265.8 [K]
#                        Reference area: 0.97548 [m2]
#               Moment Reference Center: 0.13335, 0, 0 [m] (X, Y, Z)
#
#    ICING CONDITIONS:
#                           Icing Time: 420 [s]
#                                  LWC: 0.55 [g/m3]
#                                  MVD: 20 [μm]
#
#              NOTES: 1. Please use at least 5 decimal places in the numerical values
#                     2. If data are NOT provided, please fill data fields with a numerical value of "-999" 
#
#++++++++++++++++++++++++++++++++++++++++++++++++++++++++++++++++++++++++++++++++++++++++++++++++++++++++++++++++++++

AUXDATA NUM_LAYERS  = "5"
                                              
VARIABLES = "X_ICED" "Y_ICED" "Z_ICED"

ZONE T="SLICE_Y_0p9144_BINS01_KS_XXmm_SINGLE_LAYER"
 5.324727297E-01 9.143882990E-01 -2.722525038E-02
 5.291514993E-01 9.143882990E-01 -2.652224153E-02
 5.291487575E-01 9.143882990E-01 -2.652166598E-02
 5.258272290E-01 9.143882990E-01 -2.582164295E-02
 5.258244872E-01 9.143882990E-01 -2.582107112E-02
 5.225037336E-01 9.143882990E-01 -2.512510866E-02
 5.225009918E-01 9.143882990E-01 -2.512454055E-02
 5.191799402E-01 9.143882990E-01 -2.443256229E-02
 5.191771984E-01 9.143882990E-01 -2.443199605E-02
 5.158559680E-01 9.143882990E-01 -2.374301106E-02
 5.158532262E-01 9.143882990E-01 -2.374244854E-02
 5.125327706E-01 9.143882990E-01 -2.305652015E-02
 5.125300288E-01 9.143882990E-01 -2.305595949E-02
 5.092101693E-01 9.143882990E-01 -2.237508632E-02
 5.092074275E-01 9.143882990E-01 -2.237452939E-02
 5.058885217E-01 9.143882990E-01 -2.169572003E-02
 5.058857799E-01 9.143882990E-01 -2.169516496E-02
 5.025674105E-01 9.143882990E-01 -2.102140710E-02
 5.025646687E-01 9.143882990E-01 -2.102085575E-02
 4.992471933E-01 9.143882990E-01 -2.034916356E-02
 4.992444813E-01 9.143882990E-01 -2.034861408E-02
 4.959287345E-01 9.143882990E-01 -1.968104765E-02
 4.959260225E-01 9.143882990E-01 -1.968050189E-02
 4.926109612E-01 9.143882990E-01 -1.901699044E-02
 4.926082492E-01 9.143882990E-01 -1.901644841E-02
 4.892939925E-01 9.143882990E-01 -1.835599728E-02
 4.892912805E-01 9.143882990E-01 -1.835545711E-02
 4.859788120E-01 9.143882990E-01 -1.769813523E-02
 4.859761000E-01 9.143882990E-01 -1.769759879E-02
 4.826664031E-01 9.143882990E-01 -1.704347879E-02
 4.826636910E-01 9.143882990E-01 -1.704294421E-02
 4.793547094E-01 9.143882990E-01 -1.639287919E-02
 4.793519974E-01 9.143882990E-01 -1.639234833E-02
 4.760448039E-01 9.143882990E-01 -1.574541256E-02
 4.760420918E-01 9.143882990E-01 -1.574488357E-02
 4.727376401E-01 9.143882990E-01 -1.510214340E-02
 4.727349281E-01 9.143882990E-01 -1.510161813E-02
 4.694322348E-01 9.143882990E-01 -1.446200814E-02
 4.694295228E-01 9.143882990E-01 -1.446148567E-02
 4.661286473E-01 9.143882990E-01 -1.382500771E-02
 4.661259353E-01 9.143882990E-01 -1.382448711E-02
 4.628277421E-01 9.143882990E-01 -1.319120545E-02
 4.628250599E-01 9.143882990E-01 -1.319068763E-02
 4.595297277E-01 9.143882990E-01 -1.256060787E-02
 4.595270455E-01 9.143882990E-01 -1.256009284E-02
 4.562343955E-01 9.143882990E-01 -1.193420682E-02
 4.562317133E-01 9.143882990E-01 -1.193369552E-02
 4.529418349E-01 9.143882990E-01 -1.131101046E-02
 4.529391527E-01 9.143882990E-01 -1.131050102E-02
 4.496530592E-01 9.143882990E-01 -1.069108397E-02
 4.496503770E-01 9.143882990E-01 -1.069057733E-02
 4.463660121E-01 9.143882990E-01 -1.007528789E-02
 4.463633299E-01 9.143882990E-01 -1.007478498E-02
 4.430828393E-01 9.143882990E-01 -9.461767972E-03
 4.430801570E-01 9.143882990E-01 -9.461266920E-03
 4.398033321E-01 9.143882990E-01 -8.852512576E-03
 4.398006499E-01 9.143882990E-01 -8.852015249E-03
 4.365266263E-01 9.143882990E-01 -8.246465586E-03
 4.365239441E-01 9.143882990E-01 -8.245970123E-03
 4.332537055E-01 9.143882990E-01 -7.643684745E-03
 4.332510233E-01 9.143882990E-01 -7.643192541E-03
 4.299845695E-01 9.143882990E-01 -7.044177968E-03
 4.299818873E-01 9.143882990E-01 -7.043688092E-03
 4.267200828E-01 9.143882990E-01 -6.449008361E-03
 4.267174304E-01 9.143882990E-01 -6.448522210E-03
 4.234584868E-01 9.143882990E-01 -5.856045522E-03
 4.234558344E-01 9.143882990E-01 -5.855561234E-03
 4.202016294E-01 9.143882990E-01 -5.267420784E-03
 4.201989770E-01 9.143882990E-01 -5.266939756E-03
 4.169495404E-01 9.143882990E-01 -4.682138097E-03
 4.169468880E-01 9.143882990E-01 -4.681659862E-03
 4.137012362E-01 9.143882990E-01 -4.100126214E-03
 4.136985838E-01 9.143882990E-01 -4.099650774E-03
 4.104576409E-01 9.143882990E-01 -3.522453597E-03
 4.104549885E-01 9.143882990E-01 -3.521981649E-03
 4.072187841E-01 9.143882990E-01 -2.948122099E-03
 4.072161317E-01 9.143882990E-01 -2.947652945E-03
 4.039838314E-01 9.143882990E-01 -2.376067685E-03
 4.039811790E-01 9.143882990E-01 -2.375600394E-03
 4.007545710E-01 9.143882990E-01 -1.808418892E-03
 4.007519186E-01 9.143882990E-01 -1.807955210E-03
 3.975309432E-01 9.143882990E-01 -1.245177235E-03
 3.975283206E-01 9.143882990E-01 -1.244717161E-03
 3.943112493E-01 9.143882990E-01 -6.842136499E-04
 3.943086267E-01 9.143882990E-01 -6.837554392E-04
 3.910982311E-01 9.143882990E-01 -1.277258998E-04
 3.910956085E-01 9.143882990E-01 -1.272713416E-04
 3.878900111E-01 9.143882990E-01 4.254182277E-04
 3.878873885E-01 9.143882990E-01 4.258700646E-04
 3.846875727E-01 9.143882990E-01 9.751527687E-04
 3.846849501E-01 9.143882990E-01 9.756018408E-04
 3.814898133E-01 9.143882990E-01 1.520547899E-03
 3.814871907E-01 9.143882990E-01 1.520993421E-03
 3.782988787E-01 9.143882990E-01 2.063459018E-03
 3.782962859E-01 9.143882990E-01 2.063902561E-03
 3.751136959E-01 9.143882990E-01 2.601960907E-03
 3.751111031E-01 9.143882990E-01 2.602400724E-03
 3.719351888E-01 9.143882990E-01 3.135986626E-03
 3.719325960E-01 9.143882990E-01 3.136422951E-03
 3.687615395E-01 9.143882990E-01 3.667666111E-03
 3.687589467E-01 9.143882990E-01 3.668100340E-03
 3.655955493E-01 9.143882990E-01 4.193801433E-03
 3.655929565E-01 9.143882990E-01 4.194231238E-03
 3.624353707E-01 9.143882990E-01 4.717520904E-03
 3.624327779E-01 9.143882990E-01 4.717948847E-03
 3.592818677E-01 9.143882990E-01 5.236766301E-03
 3.592793047E-01 9.143882990E-01 5.237190519E-03
 3.561351895E-01 9.143882990E-01 5.752524827E-03
 3.561326265E-01 9.143882990E-01 5.752946250E-03
 3.529952168E-01 9.143882990E-01 6.263808347E-03
 3.529926538E-01 9.143882990E-01 6.264226045E-03
 3.498619795E-01 9.143882990E-01 6.771611050E-03
 3.498594165E-01 9.143882990E-01 6.772025954E-03
 3.467365503E-01 9.143882990E-01 7.275861222E-03
 3.467339873E-01 9.143882990E-01 7.276273333E-03
 3.436177969E-01 9.143882990E-01 7.775634527E-03
 3.436152637E-01 9.143882990E-01 7.776042912E-03
 3.405057490E-01 9.143882990E-01 8.270930499E-03
 3.405032158E-01 9.143882990E-01 8.271334693E-03
 3.374025822E-01 9.143882990E-01 8.763598278E-03
 3.374000490E-01 9.143882990E-01 8.764000610E-03
 3.343060315E-01 9.143882990E-01 9.250795469E-03
 3.343034983E-01 9.143882990E-01 9.251193143E-03
 3.312171996E-01 9.143882990E-01 9.734439664E-03
 3.312146664E-01 9.143882990E-01 9.734834544E-03
 3.281361163E-01 9.143882990E-01 1.021353528E-02
 3.281336129E-01 9.143882990E-01 1.021392643E-02
 3.250637949E-01 9.143882990E-01 1.068901177E-02
 3.250612915E-01 9.143882990E-01 1.068940014E-02
 3.219991624E-01 9.143882990E-01 1.115993690E-02
 3.219966590E-01 9.143882990E-01 1.116032153E-02
 3.189422488E-01 9.143882990E-01 1.162631810E-02
 3.189397454E-01 9.143882990E-01 1.162669901E-02
 3.158941269E-01 9.143882990E-01 1.208907459E-02
 3.158916235E-01 9.143882990E-01 1.208945271E-02
 3.128536344E-01 9.143882990E-01 1.254728623E-02
 3.128511608E-01 9.143882990E-01 1.254766062E-02
 3.098228872E-01 9.143882990E-01 1.300080959E-02
 3.098204136E-01 9.143882990E-01 1.300118025E-02
 3.067999184E-01 9.143882990E-01 1.345077902E-02
 3.067974448E-01 9.143882990E-01 1.345114689E-02
 3.037865758E-01 9.143882990E-01 1.389506739E-02
 3.037841022E-01 9.143882990E-01 1.389543060E-02
 3.007809818E-01 9.143882990E-01 1.433580276E-02
 3.007785380E-01 9.143882990E-01 1.433616318E-02
 2.977850735E-01 9.143882990E-01 1.477184985E-02
 2.977826297E-01 9.143882990E-01 1.477220561E-02
 2.947989106E-01 9.143882990E-01 1.520321053E-02
 2.947964668E-01 9.143882990E-01 1.520356257E-02
 2.918204069E-01 9.143882990E-01 1.563002355E-02
 2.918179631E-01 9.143882990E-01 1.563037187E-02
 2.888526618E-01 9.143882990E-01 1.605307311E-02
 2.888502479E-01 9.143882990E-01 1.605341956E-02
 2.858935595E-01 9.143882990E-01 1.647051238E-02
 2.858911455E-01 9.143882990E-01 1.647085324E-02
 2.829451859E-01 9.143882990E-01 1.688318886E-02
 2.829427719E-01 9.143882990E-01 1.688352600E-02
 2.800055444E-01 9.143882990E-01 1.729224809E-02
 2.800031304E-01 9.143882990E-01 1.729258150E-02
 2.770765126E-01 9.143882990E-01 1.769555174E-02
 2.770741284E-01 9.143882990E-01 1.769588143E-02
 2.741562128E-01 9.143882990E-01 1.809423417E-02
 2.741538286E-01 9.143882990E-01 1.809456013E-02
 2.712466121E-01 9.143882990E-01 1.848816499E-02
 2.712442279E-01 9.143882990E-01 1.848848723E-02
 2.683476806E-01 9.143882990E-01 1.887733303E-02
 2.683453262E-01 9.143882990E-01 1.887765154E-02
 2.654584348E-01 9.143882990E-01 1.926181465E-02
 2.654560804E-01 9.143882990E-01 1.926212944E-02
 2.625799179E-01 9.143882990E-01 1.964153908E-02
 2.625775635E-01 9.143882990E-01 1.964185014E-02
 2.597120404E-01 9.143882990E-01 2.001550980E-02
 2.597096860E-01 9.143882990E-01 2.001581527E-02
 2.568547726E-01 9.143882990E-01 2.038472146E-02
 2.568524480E-01 9.143882990E-01 2.038502321E-02
 2.540082932E-01 9.143882990E-01 2.074917592E-02
 2.540059686E-01 9.143882990E-01 2.074947394E-02
 2.511724532E-01 9.143882990E-01 2.110887133E-02
 2.511701286E-01 9.143882990E-01 2.110916562E-02
 2.483472526E-01 9.143882990E-01 2.146281675E-02
 2.483449429E-01 9.143882990E-01 2.146310546E-02
 2.455337346E-01 9.143882990E-01 2.181192860E-02
 2.455314398E-01 9.143882990E-01 2.181221358E-02
 2.427309304E-01 9.143882990E-01 2.215628512E-02
 2.427286357E-01 9.143882990E-01 2.215656638E-02
 2.399397343E-01 9.143882990E-01 2.249482088E-02
 2.399374545E-01 9.143882990E-01 2.249509655E-02
 2.371602207E-01 9.143882990E-01 2.282852493E-02
 2.371579558E-01 9.143882990E-01 2.282879688E-02
 2.343913615E-01 9.143882990E-01 2.315647341E-02
 2.343890965E-01 9.143882990E-01 2.315674163E-02
 2.316351682E-01 9.143882990E-01 2.347952500E-02
 2.316329181E-01 9.143882990E-01 2.347978950E-02
 2.288896888E-01 9.143882990E-01 2.379781753E-02
 2.288874388E-01 9.143882990E-01 2.379807830E-02
 2.261567861E-01 9.143882990E-01 2.411022224E-02
 2.261545509E-01 9.143882990E-01 2.411047742E-02
 2.234355509E-01 9.143882990E-01 2.441679686E-02
 2.234333307E-01 9.143882990E-01 2.441704646E-02
 2.207259834E-01 9.143882990E-01 2.471854538E-02
 2.207237631E-01 9.143882990E-01 2.471879125E-02
 2.180290371E-01 9.143882990E-01 2.501439862E-02
 2.180268317E-01 9.143882990E-01 2.501464076E-02
 2.153447866E-01 9.143882990E-01 2.530535311E-02
 2.153425962E-01 9.143882990E-01 2.530559152E-02
 2.126721591E-01 9.143882990E-01 2.559048682E-02
 2.126699686E-01 9.143882990E-01 2.559071966E-02
 2.100131512E-01 9.143882990E-01 2.586965635E-02
 2.100109756E-01 9.143882990E-01 2.586988360E-02
 2.073658109E-01 9.143882990E-01 2.614399418E-02
 2.073636502E-01 9.143882990E-01 2.614421770E-02
 2.047311068E-01 9.143882990E-01 2.641243860E-02
 2.047289610E-01 9.143882990E-01 2.641265839E-02
 2.021090239E-01 9.143882990E-01 2.667499334E-02
 2.021068782E-01 9.143882990E-01 2.667520754E-02
 1.995005608E-01 9.143882990E-01 2.693157643E-02
 1.994984299E-01 9.143882990E-01 2.693178691E-02
 1.969047785E-01 9.143882990E-01 2.718326449E-02
 1.969026625E-01 9.143882990E-01 2.718346938E-02
 1.943226308E-01 9.143882990E-01 2.742899209E-02
 1.943205148E-01 9.143882990E-01 2.742919326E-02
 1.917531639E-01 9.143882990E-01 2.766981721E-02
 1.917510629E-01 9.143882990E-01 2.767001465E-02
 1.891962439E-01 9.143882990E-01 2.790375240E-02
 1.891941577E-01 9.143882990E-01 2.790394425E-02
 1.866540015E-01 9.143882990E-01 2.813265286E-02
 1.866519302E-01 9.143882990E-01 2.813283913E-02
 1.841243953E-01 9.143882990E-01 2.835565433E-02
 1.841223240E-01 9.143882990E-01 2.835583687E-02
 1.816093922E-01 9.143882990E-01 2.857262641E-02
 1.816073358E-01 9.143882990E-01 2.857280336E-02
 1.791069955E-01 9.143882990E-01 2.878370322E-02
 1.791049540E-01 9.143882990E-01 2.878387645E-02
 1.766192913E-01 9.143882990E-01 2.898974158E-02
 1.766172647E-01 9.143882990E-01 2.898990922E-02
 1.741451472E-01 9.143882990E-01 2.918881923E-02
 1.741431206E-01 9.143882990E-01 2.918898128E-02
 1.716846824E-01 9.143882990E-01 2.938292921E-02
 1.716826707E-01 9.143882990E-01 2.938308753E-02
 1.692388356E-01 9.143882990E-01 2.957100421E-02
 1.692368388E-01 9.143882990E-01 2.957115695E-02
 1.668065935E-01 9.143882990E-01 2.975311503E-02
 1.668046117E-01 9.143882990E-01 2.975326404E-02
 1.643889844E-01 9.143882990E-01 2.992919274E-02
 1.643870026E-01 9.143882990E-01 2.992933616E-02
 1.619859785E-01 9.143882990E-01 3.009923548E-02
 1.619840115E-01 9.143882990E-01 3.009937517E-02
 1.595976502E-01 9.143882990E-01 3.026424348E-02
 1.595956981E-01 9.143882990E-01 3.026437759E-02
 1.572228819E-01 9.143882990E-01 3.042229079E-02
 1.572209448E-01 9.143882990E-01 3.042241931E-02
 1.548637152E-01 9.143882990E-01 3.057422861E-02
 1.548617929E-01 9.143882990E-01 3.057435341E-02
 1.525192559E-01 9.143882990E-01 3.072113544E-02
 1.525173336E-01 9.143882990E-01 3.072125465E-02
 1.501893848E-01 9.143882990E-01 3.086200170E-02
 1.501874775E-01 9.143882990E-01 3.086211719E-02
 1.478751451E-01 9.143882990E-01 3.099676780E-02
 1.478732526E-01 9.143882990E-01 3.099687770E-02
 1.455745101E-01 9.143882990E-01 3.112557344E-02
 1.455726326E-01 9.143882990E-01 3.112567775E-02
 1.432904750E-01 9.143882990E-01 3.124819696E-02
 1.432886124E-01 9.143882990E-01 3.124829754E-02
 1.410210729E-01 9.143882990E-01 3.136479110E-02
 1.410192251E-01 9.143882990E-01 3.136488795E-02
 1.387672871E-01 9.143882990E-01 3.147528693E-02
 1.387654394E-01 9.143882990E-01 3.147537634E-02
 1.365281045E-01 9.143882990E-01 3.157974035E-02
 1.365262717E-01 9.143882990E-01 3.157982603E-02
 1.343045980E-01 9.143882990E-01 3.167909011E-02
 1.343027800E-01 9.143882990E-01 3.167917207E-02
 1.320977211E-01 9.143882990E-01 3.177226335E-02
 1.320959181E-01 9.143882990E-01 3.177233785E-02
 1.299053580E-01 9.143882990E-01 3.185841069E-02
 1.299035698E-01 9.143882990E-01 3.185848147E-02
 1.277296990E-01 9.143882990E-01 3.193937615E-02
 1.277279258E-01 9.143882990E-01 3.193944320E-02
 1.255696416E-01 9.143882990E-01 3.201424330E-02
 1.255678833E-01 9.143882990E-01 3.201430291E-02
 1.234252751E-01 9.143882990E-01 3.208399937E-02
 1.234235242E-01 9.143882990E-01 3.208405524E-02
 1.212964430E-01 9.143882990E-01 3.214665502E-02
 1.212947071E-01 9.143882990E-01 3.214670718E-02
 1.191843003E-01 9.143882990E-01 3.220413253E-02
 1.191825718E-01 9.143882990E-01 3.220418096E-02
 1.170887649E-01 9.143882990E-01 3.225544095E-02
 1.170870513E-01 9.143882990E-01 3.225548193E-02
 1.150088385E-01 9.143882990E-01 3.230064362E-02
 1.150071397E-01 9.143882990E-01 3.230068088E-02
 1.129455119E-01 9.143882990E-01 3.233966976E-02
 1.129438281E-01 9.143882990E-01 3.233970329E-02
 1.108988076E-01 9.143882990E-01 3.237252682E-02
 1.108971387E-01 9.143882990E-01 3.237255290E-02
 1.088677868E-01 9.143882990E-01 3.240027651E-02
 1.088661253E-01 9.143882990E-01 3.240029886E-02
 1.068543717E-01 9.143882990E-01 3.242177889E-02
 1.068527251E-01 9.143882990E-01 3.242179751E-02
 1.048576310E-01 9.143882990E-01 3.243810683E-02
 1.048559994E-01 9.143882990E-01 3.243812174E-02
 1.028774902E-01 9.143882990E-01 3.244826570E-02
 1.028758734E-01 9.143882990E-01 3.244827315E-02
 1.009139791E-01 9.143882990E-01 3.245224431E-02
 1.009123772E-01 9.143882990E-01 3.245224804E-02
 9.896706045E-02 9.143882990E-01 3.245005384E-02
 9.896547347E-02 9.143882990E-01 3.245005384E-02
 9.703783691E-02 9.143882990E-01 3.244261816E-02
 9.703625739E-02 9.143882990E-01 3.244261071E-02
 9.512521327E-02 9.143882990E-01 3.242900595E-02
 9.512364864E-02 9.143882990E-01 3.242899477E-02
 9.323026985E-02 9.143882990E-01 3.241014853E-02
 9.322872013E-02 9.143882990E-01 3.241013363E-02
 9.135193378E-02 9.143882990E-01 3.238511458E-02
 9.135039896E-02 9.143882990E-01 3.238509595E-02
 8.949127048E-02 9.143882990E-01 3.235484287E-02
 8.948975056E-02 9.143882990E-01 3.235481679E-02
 8.764822036E-02 9.143882990E-01 3.231832013E-02
 8.764671534E-02 9.143882990E-01 3.231829032E-02
 8.582284302E-02 9.143882990E-01 3.227655217E-02
 8.582135290E-02 9.143882990E-01 3.227651864E-02
 8.401414752E-02 9.143882990E-01 3.222960606E-02
 8.401267231E-02 9.143882990E-01 3.222956881E-02
 8.222405612E-02 9.143882990E-01 3.217635304E-02
 8.222259581E-02 9.143882990E-01 3.217630833E-02
 8.045057207E-02 9.143882990E-01 3.211692721E-02
 8.044912666E-02 9.143882990E-01 3.211687878E-02
 7.869576663E-02 9.143882990E-01 3.205217794E-02
 7.869433612E-02 9.143882990E-01 3.205212578E-02
 7.695864141E-02 9.143882990E-01 3.198218718E-02
 7.695722580E-02 9.143882990E-01 3.198213130E-02
 7.523919642E-02 9.143882990E-01 3.190695122E-02
 7.523778826E-02 9.143882990E-01 3.190689161E-02
 7.353741676E-02 9.143882990E-01 3.182647005E-02
 7.353602350E-02 9.143882990E-01 3.182640299E-02
 7.185424864E-02 9.143882990E-01 3.173967451E-02
 7.185287029E-02 9.143882990E-01 3.173960373E-02
 7.018876076E-02 9.143882990E-01 3.164763004E-02
 7.018739730E-02 9.143882990E-01 3.164755553E-02
 6.854193658E-02 9.143882990E-01 3.155027330E-02
 6.854058802E-02 9.143882990E-01 3.155019507E-02
 6.691280007E-02 9.143882990E-01 3.144766763E-02
 6.691146642E-02 9.143882990E-01 3.144758567E-02
 6.530233473E-02 9.143882990E-01 3.133974969E-02
 6.530101597E-02 9.143882990E-01 3.133966029E-02
 6.371054053E-02 9.143882990E-01 3.122651577E-02
 6.370923668E-02 9.143882990E-01 3.122642264E-02
 6.213642284E-02 9.143882990E-01 3.110803664E-02
 6.213513762E-02 9.143882990E-01 3.110793978E-02
 6.058098376E-02 9.143882990E-01 3.098423965E-02
 6.057971343E-02 9.143882990E-01 3.098413907E-02
 5.904421955E-02 9.143882990E-01 3.085512668E-02
 5.904296413E-02 9.143882990E-01 3.085502051E-02
 5.752712488E-02 9.143882990E-01 3.072062880E-02
 5.752588436E-02 9.143882990E-01 3.072051890E-02
 5.602771044E-02 9.143882990E-01 3.058088757E-02
 5.602648482E-02 9.143882990E-01 3.058077395E-02
 5.454704165E-02 9.143882990E-01 3.043682501E-02
 5.454583094E-02 9.143882990E-01 3.043670766E-02
 5.308497325E-02 9.143882990E-01 3.028645180E-02
 5.308377743E-02 9.143882990E-01 3.028632887E-02
 5.164264515E-02 9.143882990E-01 3.013168834E-02
 5.164146796E-02 9.143882990E-01 3.013156168E-02
 5.021806806E-02 9.143882990E-01 2.997267619E-02
 5.021690577E-02 9.143882990E-01 2.997254580E-02
 4.881415889E-02 9.143882990E-01 2.980821021E-02
 4.881301150E-02 9.143882990E-01 2.980807610E-02
 4.742792994E-02 9.143882990E-01 2.963849716E-02
 4.742679745E-02 9.143882990E-01 2.963835932E-02
 4.606137052E-02 9.143882990E-01 2.946340293E-02
 4.606025293E-02 9.143882990E-01 2.946325950E-02
 4.471355677E-02 9.143882990E-01 2.928398736E-02
 4.471245408E-02 9.143882990E-01 2.928384021E-02
 4.338548332E-02 9.143882990E-01 2.910018340E-02
 4.338439927E-02 9.143882990E-01 2.910003252E-02
 4.207608849E-02 9.143882990E-01 2.891106345E-02
 4.207501933E-02 9.143882990E-01 2.891090885E-02
 4.078643024E-02 9.143882990E-01 2.871755883E-02
 4.078537598E-02 9.143882990E-01 2.871740051E-02
 3.951644525E-02 9.143882990E-01 2.851866558E-02
 3.951540962E-02 9.143882990E-01 2.851850353E-02
 3.826620430E-02 9.143882990E-01 2.831538394E-02
 3.826518357E-02 9.143882990E-01 2.831521817E-02
 3.703470528E-02 9.143882990E-01 2.810778655E-02
 3.703369945E-02 9.143882990E-01 2.810761705E-02
 3.582295403E-02 9.143882990E-01 2.789580077E-02
 3.582196310E-02 9.143882990E-01 2.789562754E-02
 3.463086858E-02 9.143882990E-01 2.767843008E-02
 3.462989628E-02 9.143882990E-01 2.767825313E-02
 3.345759958E-02 9.143882990E-01 2.745773830E-02
 3.345664218E-02 9.143882990E-01 2.745755762E-02
 3.230500221E-02 9.143882990E-01 2.723159268E-02
 3.230405971E-02 9.143882990E-01 2.723140828E-02
 3.117214143E-02 9.143882990E-01 2.700106241E-02
 3.117121570E-02 9.143882990E-01 2.700087428E-02
 3.005901910E-02 9.143882990E-01 2.676616609E-02
 3.005811013E-02 9.143882990E-01 2.676597424E-02
 2.896561846E-02 9.143882990E-01 2.652697638E-02
 2.896472625E-02 9.143882990E-01 2.652678080E-02
 2.789193019E-02 9.143882990E-01 2.628483064E-02
 2.789105289E-02 9.143882990E-01 2.628463320E-02
 2.683747560E-02 9.143882990E-01 2.603907138E-02
 2.683661506E-02 9.143882990E-01 2.603887022E-02
 2.580222115E-02 9.143882990E-01 2.579489537E-02
 2.580137551E-02 9.143882990E-01 2.579469606E-02
 2.478182316E-02 9.143882990E-01 2.556221932E-02
 2.478099056E-02 9.143882990E-01 2.556202933E-02
 2.377725951E-02 9.143882990E-01 2.534167841E-02
 2.377643809E-02 9.143882990E-01 2.534149773E-02
 2.279283851E-02 9.143882990E-01 2.511614747E-02
 2.279203385E-02 9.143882990E-01 2.511596307E-02
 2.182368748E-02 9.143882990E-01 2.489644103E-02
 2.182289585E-02 9.143882990E-01 2.489626221E-02
 2.083855681E-02 9.143882990E-01 2.479424141E-02
 2.083775215E-02 9.143882990E-01 2.479415759E-02
 1.971866563E-02 9.143882990E-01 2.517533675E-02
 1.971775107E-02 9.143882990E-01 2.517564781E-02
 1.814762130E-02 9.143882990E-01 2.696931735E-02
 1.814633794E-02 9.143882990E-01 2.697078325E-02
 1.569403708E-02 9.143882990E-01 3.133532405E-02
 1.569203287E-02 9.143882990E-01 3.133889288E-02
 1.292351447E-02 9.143882990E-01 3.632180020E-02
 1.292125136E-02 9.143882990E-01 3.632587194E-02
 1.116488501E-02 9.143882990E-01 3.813442960E-02
 1.116344891E-02 9.143882990E-01 3.813590854E-02
 1.014333405E-02 9.143882990E-01 3.783524409E-02
 1.014250051E-02 9.143882990E-01 3.783499822E-02
 9.212176315E-03 9.143882990E-01 3.731305152E-02
 9.211415425E-03 9.143882990E-01 3.731262311E-02
 8.409223519E-03 9.143882990E-01 3.654156625E-02
 8.408567868E-03 9.143882990E-01 3.654093668E-02
 7.724118419E-03 9.143882990E-01 3.550498560E-02
 7.723558694E-03 9.143882990E-01 3.550413996E-02
 7.018107455E-03 9.143882990E-01 3.459005058E-02
 7.017530967E-03 9.143882990E-01 3.458930179E-02
 6.193416193E-03 9.143882990E-01 3.403382748E-02
 6.192742381E-03 9.143882990E-01 3.403337300E-02
 5.319437012E-03 9.143882990E-01 3.357018903E-02
 5.318723153E-03 9.143882990E-01 3.356980905E-02
 4.518803675E-03 9.143882990E-01 3.299740329E-02
 4.518149886E-03 9.143882990E-01 3.299693391E-02
 3.872076282E-03 9.143882990E-01 3.215979785E-02
 3.871547990E-03 9.143882990E-01 3.215911239E-02
 3.385884454E-03 9.143882990E-01 3.104834259E-02
 3.385487478E-03 9.143882990E-01 3.104743361E-02
 2.869020449E-03 9.143882990E-01 3.007199056E-02
 2.868598327E-03 9.143882990E-01 3.007119335E-02
 2.163329860E-03 9.143882990E-01 2.946404554E-02
 2.162753372E-03 9.143882990E-01 2.946355008E-02
 1.392850187E-03 9.143882990E-01 2.898709662E-02
 1.392220729E-03 9.143882990E-01 2.898670733E-02
 6.373949000E-04 9.143882990E-01 2.849347331E-02
 6.367778406E-04 9.143882990E-01 2.849307097E-02
 -8.160293510E-05 9.143882990E-01 2.795118652E-02
 -8.219022129E-05 9.143882990E-01 2.795074321E-02
 -6.989440299E-04 9.143882990E-01 2.728612162E-02
 -6.994482246E-04 9.143882990E-01 2.728557773E-02
 -1.100147376E-03 9.143882990E-01 2.633985318E-02
 -1.100474969E-03 9.143882990E-01 2.633908018E-02
 -1.258257311E-03 9.143882990E-01 2.512097917E-02
 -1.258386299E-03 9.143882990E-01 2.511998266E-02
 -1.468315953E-03 9.143882990E-01 2.405643649E-02
 -1.468487550E-03 9.143882990E-01 2.405556664E-02
 -1.962051028E-03 9.143882990E-01 2.336694859E-02
 -1.962454524E-03 9.143882990E-01 2.336638607E-02
 -2.569245175E-03 9.143882990E-01 2.279370651E-02
 -2.569741337E-03 9.143882990E-01 2.279323898E-02
 -3.156944877E-03 9.143882990E-01 2.220930345E-02
 -3.157424973E-03 9.143882990E-01 2.220882662E-02
 -3.718540771E-03 9.143882990E-01 2.159525640E-02
 -3.718999447E-03 9.143882990E-01 2.159475535E-02
 -4.222468007E-03 9.143882990E-01 2.092698030E-02
 -4.222879652E-03 9.143882990E-01 2.092643455E-02
 -4.565087147E-03 9.143882990E-01 2.014032751E-02
 -4.565367009E-03 9.143882990E-01 2.013968490E-02
 -4.547954537E-03 9.143882990E-01 1.909911260E-02
 -4.547940101E-03 9.143882990E-01 1.909826137E-02
 -4.134159535E-03 9.143882990E-01 1.784677804E-02
 -4.133821465E-03 9.143882990E-01 1.784575544E-02
 -3.835736774E-03 9.143882990E-01 1.676609553E-02
 -3.835493000E-03 9.143882990E-01 1.676521264E-02
 -4.002741538E-03 9.143882990E-01 1.601473801E-02
 -4.002878442E-03 9.143882990E-01 1.601412520E-02
 -4.334816709E-03 9.143882990E-01 1.536209136E-02
 -4.335088190E-03 9.143882990E-01 1.536155865E-02
 -4.642413929E-03 9.143882990E-01 1.470532548E-02
 -4.642665386E-03 9.143882990E-01 1.470478904E-02
 -4.919701256E-03 9.143882990E-01 1.403413620E-02
 -4.919927567E-03 9.143882990E-01 1.403358765E-02
 -5.167325959E-03 9.143882990E-01 1.334133185E-02
 -5.167528056E-03 9.143882990E-01 1.334076561E-02
 -5.378628150E-03 9.143882990E-01 1.263477840E-02
 -5.378800910E-03 9.143882990E-01 1.263420098E-02
 -5.542206112E-03 9.143882990E-01 1.192784216E-02
 -5.542339757E-03 9.143882990E-01 1.192726474E-02
 -5.632617045E-03 9.143882990E-01 1.119522657E-02
 -5.632691085E-03 9.143882990E-01 1.119462773E-02
 -5.546039436E-03 9.143882990E-01 1.044450887E-02
 -5.545968655E-03 9.143882990E-01 1.044389606E-02
 -5.084704142E-03 9.143882990E-01 9.691375308E-03
 -5.084326956E-03 9.143882990E-01 9.690759704E-03
 -4.247277044E-03 9.143882990E-01 8.981696330E-03
 -4.246592522E-03 9.143882990E-01 8.981117047E-03
 -3.562057391E-03 9.143882990E-01 8.348626085E-03
 -3.561497666E-03 9.143882990E-01 8.348109201E-03
 -3.336910158E-03 9.143882990E-01 7.745538373E-03
 -3.336726455E-03 9.143882990E-01 7.745045703E-03
 -3.265869338E-03 9.143882990E-01 7.146478631E-03
 -3.265811363E-03 9.143882990E-01 7.145989221E-03
 -3.171753604E-03 9.143882990E-01 6.543413270E-03
 -3.171676770E-03 9.143882990E-01 6.542920601E-03
 -3.047272330E-03 9.143882990E-01 5.945114885E-03
 -3.047170583E-03 9.143882990E-01 5.944625940E-03
 -2.893832279E-03 9.143882990E-01 5.357647780E-03
 -2.893707016E-03 9.143882990E-01 5.357167684E-03
 -2.706756350E-03 9.143882990E-01 4.778162111E-03
 -2.706603613E-03 9.143882990E-01 4.777688533E-03
 -2.470144769E-03 9.143882990E-01 4.210212268E-03
 -2.469951520E-03 9.143882990E-01 4.209748469E-03
 -2.156862756E-03 9.143882990E-01 3.676811000E-03
 -2.156606875E-03 9.143882990E-01 3.676375374E-03
 -1.769318245E-03 9.143882990E-01 3.186629154E-03
 -1.769001596E-03 9.143882990E-01 3.186228685E-03
 -1.386419986E-03 9.143882990E-01 2.700505545E-03
 -1.386107178E-03 9.143882990E-01 2.700108569E-03
 -1.057902584E-03 9.143882990E-01 2.187274164E-03
 -1.057634247E-03 9.143882990E-01 2.186854836E-03
 -7.376392023E-04 9.143882990E-01 1.667213510E-03
 -7.373776170E-04 9.143882990E-01 1.666788710E-03
 -3.957783047E-04 9.143882990E-01 1.150376629E-03
 -3.954990534E-04 9.143882990E-01 1.149954507E-03
 -3.307624138E-05 9.143882990E-01 6.398206460E-04
 -3.277995711E-05 9.143882990E-01 6.394035881E-04
 3.450342629E-04 9.143882990E-01 1.324960176E-04
 3.453431418E-04 9.143882990E-01 1.320816082E-04
 7.311648806E-04 9.143882990E-01 -3.836698306E-04
 7.314803079E-04 9.143882990E-01 -3.840914578E-04
 1.100185094E-03 9.143882990E-01 -9.235233301E-04
 1.100486494E-03 9.143882990E-01 -9.239643114E-04
 1.458205166E-03 9.143882990E-01 -1.493551419E-03
 1.458497602E-03 9.143882990E-01 -1.494017080E-03
 1.863672514E-03 9.143882990E-01 -2.045962960E-03
 1.864003716E-03 9.143882990E-01 -2.046414185E-03
 2.337799640E-03 9.143882990E-01 -2.544365590E-03
 2.338187071E-03 9.143882990E-01 -2.544772578E-03
 2.846884076E-03 9.143882990E-01 -3.019920550E-03
 2.847299911E-03 9.143882990E-01 -3.020308912E-03
 3.377581015E-03 9.143882990E-01 -3.491629846E-03
 3.378014546E-03 9.143882990E-01 -3.492015181E-03
 3.927387763E-03 9.143882990E-01 -3.959085327E-03
 3.927836660E-03 9.143882990E-01 -3.959467169E-03
 4.496140406E-03 9.143882990E-01 -4.422773607E-03
 4.496605136E-03 9.143882990E-01 -4.423152190E-03
 5.085049663E-03 9.143882990E-01 -4.882705864E-03
 5.085530691E-03 9.143882990E-01 -4.883081652E-03
 5.692511797E-03 9.143882990E-01 -5.336335395E-03
 5.693008192E-03 9.143882990E-01 -5.336706061E-03
 6.321172696E-03 9.143882990E-01 -5.788501818E-03
 6.321686320E-03 9.143882990E-01 -5.788871087E-03
 6.966577377E-03 9.143882990E-01 -6.235751789E-03
 6.967104506E-03 9.143882990E-01 -6.236117333E-03
 7.630976848E-03 9.143882990E-01 -6.681948900E-03
 7.631519344E-03 9.143882990E-01 -6.682313513E-03
 8.316872641E-03 9.143882990E-01 -7.126965094E-03
 8.317433298E-03 9.143882990E-01 -7.127328776E-03
 9.015789255E-03 9.143882990E-01 -7.570035756E-03
 9.016360156E-03 9.143882990E-01 -7.570397574E-03
 9.734978899E-03 9.143882990E-01 -8.016032167E-03
 9.735566564E-03 9.143882990E-01 -8.016396314E-03
 1.047573332E-02 9.143882990E-01 -8.457787335E-03
 1.047633868E-02 9.143882990E-01 -8.458147757E-03
 1.123422850E-02 9.143882990E-01 -8.893029764E-03
 1.123484783E-02 9.143882990E-01 -8.893385530E-03