#+++++++++++++++++++++++++++++++++++++++++++++++++++++++++++++++++++++++++++++++++++++++++++++++++++++++++++++++++++++++++++++++++
#
#   IPW-3 Cut/Slice DATA SUBMITTAL FORM for Test Case NACA0012_CP CFD, June 13th 2026
#
#       NOMENCLATURE:
#                  X [m]:  X-coordinate of the surface (clean for reference)
#                  Y [m]:  Y-coordinate of the surface (clean for reference)
#                  Z [m]:  Z-coordinate of the surface (clean for reference)
#                 Cp [-]:  Pressure coefficient
#            HTC [W/m2K]:  Convective Heat Transfer Coefficient (on the rough surface)
#               Beta [-]:  Collection efficiency
#                 Ts [K]:  Surface temperature
#                 FF [-]:  Freezing fraction
#                  k [m]:  Surface roughness height if variable (OPTIONAL)
#         RhoIce [kg/m3]:  Ice density (OPTIONAL)
#      HTC_CLEAN [W/m2K]:  Convective Heat Transfer Coefficient on the surface without roughness (OPTIONAL)
#
#                XXmm:  Roughness height used for the case, in mm.
#                       In the zone name, use the format KS_XXmm.
#                       For example, if k_s = 1.5 mm, use KS_1p5mm. 
#                       For Variable roughness, use KS_VAR
#
#    FLOW CONDITIONS:
#                                   AOA: 4.0 deg
#                           Mach Number: 0.3151 [-]
#       Mean aerodynamic chord (M.A.C.): 0.5334 [m]
#                       Reynolds Number: 3.8441 million (based on MAC)
#                       Freestream Temp: 267.55 [K]
#                        Reference area: 0.97548 [m2]
#               Moment Reference Center: 0.13335, 0, 0 [m] (X, Y, Z)
#
#    ICING CONDITIONS:
#                           Icing Time: 420 [s]
#                                  LWC: 0.55 [g/m3]
#                                  MVD: 20 [μm]
#
#              NOTES: 1. Please use at least 5 decimal places in the numerical values
#                     2. If data are NOT provided, please fill data fields with a numerical value of "-999" 
#
#++++++++++++++++++++++++++++++++++++++++++++++++++++++++++++++++++++++++++++++++++++++++++++++++++++++++++++++++++++

                                                    <- Optional ->                 
VARIABLES = "X" "Y" "Z" "Cp" "HTC" "Beta" "Ts" "FF" "k" "RhoIce" "HTC_CLEAN"

ZONE T="SLICE_Y_0p9144_BINS01_KS_0mm_CUTDATA"
0.532472672	0.9144	-0.027235644	0.25605	-999	-999	-999	-999	-999	-999	-999
0.53211985	0.9144	-0.027160765	0.25386	-999	-999	-999	-999	-999	-999	-999
0.531555307	0.9144	-0.027041089	0.25107	-999	-999	-999	-999	-999	-999	-999
0.53065202	0.9144	-0.026849695	0.24796	-999	-999	-999	-999	-999	-999	-999
0.529206644	0.9144	-0.026544017	0.24147	-999	-999	-999	-999	-999	-999	-999
0.526893717	0.9144	-0.026056475	0.23095	-999	-999	-999	-999	-999	-999	-999
0.523192352	0.9144	-0.025279646	0.21658	-999	-999	-999	-999	-999	-999	-999
0.519484914	0.9144	-0.024506115	0.20126	-999	-999	-999	-999	-999	-999	-999
0.515776585	0.9144	-0.02373687	0.18657	-999	-999	-999	-999	-999	-999	-999
0.512067405	0.9144	-0.022971736	0.17248	-999	-999	-999	-999	-999	-999	-999
0.508357367	0.9144	-0.022210778	0.15895	-999	-999	-999	-999	-999	-999	-999
0.504646498	0.9144	-0.021453878	0.14596	-999	-999	-999	-999	-999	-999	-999
0.500934842	0.9144	-0.02070085	0.13347	-999	-999	-999	-999	-999	-999	-999
0.497222355	0.9144	-0.019951928	0.12145	-999	-999	-999	-999	-999	-999	-999
0.493509089	0.9144	-0.019206879	0.10987	-999	-999	-999	-999	-999	-999	-999
0.489795032	0.9144	-0.018465782	0.09872	-999	-999	-999	-999	-999	-999	-999
0.486080221	0.9144	-0.017728475	0.08793	-999	-999	-999	-999	-999	-999	-999
0.482364659	0.9144	-0.016994959	0.07748	-999	-999	-999	-999	-999	-999	-999
0.478648351	0.9144	-0.016265234	0.06735	-999	-999	-999	-999	-999	-999	-999
0.474931316	0.9144	-0.015539225	0.05751	-999	-999	-999	-999	-999	-999	-999
0.471213559	0.9144	-0.014816918	0.04794	-999	-999	-999	-999	-999	-999	-999
0.467495097	0.9144	-0.014098248	0.03862	-999	-999	-999	-999	-999	-999	-999
0.463775943	0.9144	-0.013383169	0.02952	-999	-999	-999	-999	-999	-999	-999
0.460056076	0.9144	-0.012671811	0.02065	-999	-999	-999	-999	-999	-999	-999
0.456335542	0.9144	-0.011963946	0.01197	-999	-999	-999	-999	-999	-999	-999
0.452614327	0.9144	-0.011259675	0.00346	-999	-999	-999	-999	-999	-999	-999
0.448892445	0.9144	-0.010558932	-0.00487	-999	-999	-999	-999	-999	-999	-999
0.445169902	0.9144	-0.009861711	-0.01306	-999	-999	-999	-999	-999	-999	-999
0.441446717	0.9144	-0.00916793	-0.02111	-999	-999	-999	-999	-999	-999	-999
0.43772286	0.9144	-0.00847776	-0.02903	-999	-999	-999	-999	-999	-999	-999
0.433998375	0.9144	-0.007790987	-0.03683	-999	-999	-999	-999	-999	-999	-999
0.430273261	0.9144	-0.007107636	-0.04453	-999	-999	-999	-999	-999	-999	-999
0.42654749	0.9144	-0.006427875	-0.05213	-999	-999	-999	-999	-999	-999	-999
0.422821099	0.9144	-0.005751522	-0.05963	-999	-999	-999	-999	-999	-999	-999
0.41909409	0.9144	-0.005078586	-0.06706	-999	-999	-999	-999	-999	-999	-999
0.415366462	0.9144	-0.004409083	-0.07441	-999	-999	-999	-999	-999	-999	-999
0.41163821	0.9144	-0.003743067	-0.08169	-999	-999	-999	-999	-999	-999	-999
0.407909332	0.9144	-0.00308056	-0.08890	-999	-999	-999	-999	-999	-999	-999
0.404179842	0.9144	-0.002421507	-0.09605	-999	-999	-999	-999	-999	-999	-999
0.400449741	0.9144	-0.001765928	-0.10315	-999	-999	-999	-999	-999	-999	-999
0.396719029	0.9144	-0.00111383	-0.11021	-999	-999	-999	-999	-999	-999	-999
0.392987705	0.9144	-0.000465243	-0.11723	-999	-999	-999	-999	-999	-999	-999
0.389255772	0.9144	0.00017983	-0.12422	-999	-999	-999	-999	-999	-999	-999
0.385523228	0.9144	0.000821357	-0.13118	-999	-999	-999	-999	-999	-999	-999
0.381790073	0.9144	0.001459321	-0.13810	-999	-999	-999	-999	-999	-999	-999
0.378056305	0.9144	0.002093685	-0.14501	-999	-999	-999	-999	-999	-999	-999
0.374321925	0.9144	0.002724437	-0.15191	-999	-999	-999	-999	-999	-999	-999
0.37058693	0.9144	0.003351541	-0.15879	-999	-999	-999	-999	-999	-999	-999
0.366851319	0.9144	0.003974962	-0.16567	-999	-999	-999	-999	-999	-999	-999
0.36311509	0.9144	0.004594668	-0.17253	-999	-999	-999	-999	-999	-999	-999
0.359378242	0.9144	0.005210631	-0.17940	-999	-999	-999	-999	-999	-999	-999
0.355640779	0.9144	0.005822849	-0.18627	-999	-999	-999	-999	-999	-999	-999
0.351902679	0.9144	0.006431166	-0.19314	-999	-999	-999	-999	-999	-999	-999
0.348163948	0.9144	0.007035597	-0.20002	-999	-999	-999	-999	-999	-999	-999
0.344424577	0.9144	0.007636053	-0.20691	-999	-999	-999	-999	-999	-999	-999
0.34068457	0.9144	0.008232532	-0.21384	-999	-999	-999	-999	-999	-999	-999
0.336943921	0.9144	0.008824979	-0.22081	-999	-999	-999	-999	-999	-999	-999
0.333202626	0.9144	0.009413325	-0.22780	-999	-999	-999	-999	-999	-999	-999
0.329460671	0.9144	0.009997462	-0.23481	-999	-999	-999	-999	-999	-999	-999
0.325718062	0.9144	0.010577393	-0.24185	-999	-999	-999	-999	-999	-999	-999
0.321974792	0.9144	0.011153047	-0.24893	-999	-999	-999	-999	-999	-999	-999
0.318230843	0.9144	0.011724265	-0.25604	-999	-999	-999	-999	-999	-999	-999
0.314486222	0.9144	0.012291061	-0.26319	-999	-999	-999	-999	-999	-999	-999
0.310740925	0.9144	0.012853372	-0.27038	-999	-999	-999	-999	-999	-999	-999
0.306994928	0.9144	0.013411001	-0.27762	-999	-999	-999	-999	-999	-999	-999
0.30324824	0.9144	0.013963964	-0.28491	-999	-999	-999	-999	-999	-999	-999
0.299500854	0.9144	0.014512181	-0.29225	-999	-999	-999	-999	-999	-999	-999
0.295752748	0.9144	0.015055453	-0.29964	-999	-999	-999	-999	-999	-999	-999
0.292003932	0.9144	0.015593804	-0.30708	-999	-999	-999	-999	-999	-999	-999
0.288254389	0.9144	0.016127068	-0.31458	-999	-999	-999	-999	-999	-999	-999
0.284504109	0.9144	0.016655128	-0.32213	-999	-999	-999	-999	-999	-999	-999
0.280753099	0.9144	0.017177969	-0.32975	-999	-999	-999	-999	-999	-999	-999
0.27700133	0.9144	0.01769534	-0.33742	-999	-999	-999	-999	-999	-999	-999
0.273248809	0.9144	0.01820723	-0.34515	-999	-999	-999	-999	-999	-999	-999
0.269495526	0.9144	0.018713503	-0.35295	-999	-999	-999	-999	-999	-999	-999
0.265741464	0.9144	0.019213965	-0.36081	-999	-999	-999	-999	-999	-999	-999
0.261986631	0.9144	0.019708608	-0.36873	-999	-999	-999	-999	-999	-999	-999
0.258231002	0.9144	0.020197168	-0.37672	-999	-999	-999	-999	-999	-999	-999
0.254474577	0.9144	0.020679576	-0.38477	-999	-999	-999	-999	-999	-999	-999
0.250717355	0.9144	0.021155732	-0.39288	-999	-999	-999	-999	-999	-999	-999
0.246959309	0.9144	0.021625341	-0.40105	-999	-999	-999	-999	-999	-999	-999
0.243200451	0.9144	0.022088407	-0.40932	-999	-999	-999	-999	-999	-999	-999
0.239440763	0.9144	0.022544686	-0.41772	-999	-999	-999	-999	-999	-999	-999
0.235680235	0.9144	0.022993987	-0.42622	-999	-999	-999	-999	-999	-999	-999
0.231918873	0.9144	0.023436255	-0.43481	-999	-999	-999	-999	-999	-999	-999
0.228156655	0.9144	0.02387118	-0.44347	-999	-999	-999	-999	-999	-999	-999
0.22439358	0.9144	0.024298625	-0.45223	-999	-999	-999	-999	-999	-999	-999
0.22062965	0.9144	0.024718471	-0.46110	-999	-999	-999	-999	-999	-999	-999
0.216864844	0.9144	0.025130394	-0.47006	-999	-999	-999	-999	-999	-999	-999
0.213099165	0.9144	0.025534254	-0.47912	-999	-999	-999	-999	-999	-999	-999
0.209332612	0.9144	0.025929884	-0.48831	-999	-999	-999	-999	-999	-999	-999
0.205565175	0.9144	0.026316999	-0.49762	-999	-999	-999	-999	-999	-999	-999
0.201796845	0.9144	0.02669533	-0.50705	-999	-999	-999	-999	-999	-999	-999
0.198027631	0.9144	0.027064746	-0.51660	-999	-999	-999	-999	-999	-999	-999
0.194257528	0.9144	0.027424984	-0.52628	-999	-999	-999	-999	-999	-999	-999
0.19048653	0.9144	0.02777572	-0.53606	-999	-999	-999	-999	-999	-999	-999
0.186714634	0.9144	0.028116665	-0.54596	-999	-999	-999	-999	-999	-999	-999
0.182941851	0.9144	0.028447649	-0.55597	-999	-999	-999	-999	-999	-999	-999
0.17916818	0.9144	0.028768347	-0.56621	-999	-999	-999	-999	-999	-999	-999
0.175393624	0.9144	0.029078459	-0.57663	-999	-999	-999	-999	-999	-999	-999
0.171618188	0.9144	0.029377672	-0.58713	-999	-999	-999	-999	-999	-999	-999
0.167841876	0.9144	0.02966561	-0.59778	-999	-999	-999	-999	-999	-999	-999
0.164064698	0.9144	0.029941957	-0.60858	-999	-999	-999	-999	-999	-999	-999
0.160286665	0.9144	0.030206362	-0.61951	-999	-999	-999	-999	-999	-999	-999
0.15650779	0.9144	0.030458455	-0.63055	-999	-999	-999	-999	-999	-999	-999
0.152728093	0.9144	0.030697887	-0.64175	-999	-999	-999	-999	-999	-999	-999
0.148947588	0.9144	0.030924222	-0.65317	-999	-999	-999	-999	-999	-999	-999
0.145166297	0.9144	0.031137016	-0.66483	-999	-999	-999	-999	-999	-999	-999
0.141384244	0.9144	0.031335818	-0.67673	-999	-999	-999	-999	-999	-999	-999
0.137601458	0.9144	0.031520118	-0.68888	-999	-999	-999	-999	-999	-999	-999
0.133817971	0.9144	0.03168944	-0.70125	-999	-999	-999	-999	-999	-999	-999
0.130033823	0.9144	0.031843286	-0.71386	-999	-999	-999	-999	-999	-999	-999
0.126365068	0.9144	0.031977111	-0.72642	-999	-999	-999	-999	-999	-999	-999
0.122870516	0.9144	0.032090069	-0.73857	-999	-999	-999	-999	-999	-999	-999
0.119541958	0.9144	0.032184	-0.75036	-999	-999	-999	-999	-999	-999	-999
0.11637157	0.9144	0.032260735	-0.76178	-999	-999	-999	-999	-999	-999	-999
0.113351883	0.9144	0.032321699	-0.77284	-999	-999	-999	-999	-999	-999	-999
0.11047579	0.9144	0.032368741	-0.78360	-999	-999	-999	-999	-999	-999	-999
0.107736499	0.9144	0.032402851	-0.79400	-999	-999	-999	-999	-999	-999	-999
0.105127548	0.9144	0.032425597	-0.80407	-999	-999	-999	-999	-999	-999	-999
0.10264277	0.9144	0.032438099	-0.81385	-999	-999	-999	-999	-999	-999	-999
0.100276287	0.9144	0.03244147	-0.82330	-999	-999	-999	-999	-999	-999	-999
0.098022496	0.9144	0.032436784	-0.83242	-999	-999	-999	-999	-999	-999	-999
0.095876057	0.9144	0.032424795	-0.84123	-999	-999	-999	-999	-999	-999	-999
0.093831881	0.9144	0.032406445	-0.84980	-999	-999	-999	-999	-999	-999	-999
0.091885113	0.9144	0.032382632	-0.85829	-999	-999	-999	-999	-999	-999	-999
0.090031132	0.9144	0.03235392	-0.86627	-999	-999	-999	-999	-999	-999	-999
0.088111614	0.9144	0.032317858	-0.87446	-999	-999	-999	-999	-999	-999	-999
0.086192231	0.9144	0.032275228	-0.88323	-999	-999	-999	-999	-999	-999	-999
0.084273012	0.9144	0.032225761	-0.89202	-999	-999	-999	-999	-999	-999	-999
0.082353979	0.9144	0.032169533	-0.90108	-999	-999	-999	-999	-999	-999	-999
0.080435172	0.9144	0.03210609	-0.91025	-999	-999	-999	-999	-999	-999	-999
0.07851662	0.9144	0.03203531	-0.91962	-999	-999	-999	-999	-999	-999	-999
0.076598362	0.9144	0.031956983	-0.92911	-999	-999	-999	-999	-999	-999	-999
0.074680439	0.9144	0.031870865	-0.93870	-999	-999	-999	-999	-999	-999	-999
0.072762889	0.9144	0.031776773	-0.94857	-999	-999	-999	-999	-999	-999	-999
0.07084576	0.9144	0.031674479	-0.95866	-999	-999	-999	-999	-999	-999	-999
0.068929108	0.9144	0.031563607	-0.96895	-999	-999	-999	-999	-999	-999	-999
0.067012983	0.9144	0.03144396	-0.97944	-999	-999	-999	-999	-999	-999	-999
0.065097453	0.9144	0.031315151	-0.99018	-999	-999	-999	-999	-999	-999	-999
0.063182574	0.9144	0.031176994	-1.00123	-999	-999	-999	-999	-999	-999	-999
0.061268422	0.9144	0.031029103	-1.01263	-999	-999	-999	-999	-999	-999	-999
0.059355081	0.9144	0.030871075	-1.02430	-999	-999	-999	-999	-999	-999	-999
0.057442639	0.9144	0.030702509	-1.03631	-999	-999	-999	-999	-999	-999	-999
0.055531195	0.9144	0.030522983	-1.04868	-999	-999	-999	-999	-999	-999	-999
0.053620854	0.9144	0.030332071	-1.06131	-999	-999	-999	-999	-999	-999	-999
0.051711729	0.9144	0.030129367	-1.07450	-999	-999	-999	-999	-999	-999	-999
0.049803959	0.9144	0.029914276	-1.08806	-999	-999	-999	-999	-999	-999	-999
0.047897702	0.9144	0.029686171	-1.10167	-999	-999	-999	-999	-999	-999	-999
0.045993122	0.9144	0.029444464	-1.11589	-999	-999	-999	-999	-999	-999	-999
0.04409042	0.9144	0.02918839	-1.13089	-999	-999	-999	-999	-999	-999	-999
0.04218978	0.9144	0.028917431	-1.14643	-999	-999	-999	-999	-999	-999	-999
0.040291464	0.9144	0.028630648	-1.16256	-999	-999	-999	-999	-999	-999	-999
0.038395767	0.9144	0.028327039	-1.17920	-999	-999	-999	-999	-999	-999	-999
0.036503013	0.9144	0.028005587	-1.19668	-999	-999	-999	-999	-999	-999	-999
0.034613558	0.9144	0.027665279	-1.21538	-999	-999	-999	-999	-999	-999	-999
0.03272781	0.9144	0.027305	-1.23447	-999	-999	-999	-999	-999	-999	-999
0.030846328	0.9144	0.026923065	-1.25440	-999	-999	-999	-999	-999	-999	-999
0.028969726	0.9144	0.026517833	-1.27480	-999	-999	-999	-999	-999	-999	-999
0.027098692	0.9144	0.026087625	-1.29582	-999	-999	-999	-999	-999	-999	-999
0.025234019	0.9144	0.02563063	-1.31666	-999	-999	-999	-999	-999	-999	-999
0.023376861	0.9144	0.025143996	-1.34029	-999	-999	-999	-999	-999	-999	-999
0.021528525	0.9144	0.024624861	-1.36544	-999	-999	-999	-999	-999	-999	-999
0.019690513	0.9144	0.024070283	-1.38949	-999	-999	-999	-999	-999	-999	-999
0.017864787	0.9144	0.023476507	-1.41287	-999	-999	-999	-999	-999	-999	-999
0.016054136	0.9144	0.022838234	-1.43881	-999	-999	-999	-999	-999	-999	-999
0.014261839	0.9144	0.022150108	-1.46551	-999	-999	-999	-999	-999	-999	-999
0.012492078	0.9144	0.021405934	-1.48675	-999	-999	-999	-999	-999	-999	-999
0.010751428	0.9144	0.020596004	-1.50194	-999	-999	-999	-999	-999	-999	-999
0.009048049	0.9144	0.019710372	-1.50763	-999	-999	-999	-999	-999	-999	-999
0.0074161	0.9144	0.018750377	-1.49964	-999	-999	-999	-999	-999	-999	-999
0.00599083	0.9144	0.01778971	-1.46965	-999	-999	-999	-999	-999	-999	-999
0.004754341	0.9144	0.01683004	-1.41036	-999	-999	-999	-999	-999	-999	-999
0.003712461	0.9144	0.015889113	-1.31063	-999	-999	-999	-999	-999	-999	-999
0.002827735	0.9144	0.014946857	-1.16411	-999	-999	-999	-999	-999	-999	-999
0.002091296	0.9144	0.014007422	-0.97166	-999	-999	-999	-999	-999	-999	-999
0.001496935	0.9144	0.013077225	-0.73598	-999	-999	-999	-999	-999	-999	-999
0.001032923	0.9144	0.012151675	-0.47205	-999	-999	-999	-999	-999	-999	-999
0.000684538	0.9144	0.011210768	-0.18818	-999	-999	-999	-999	-999	-999	-999
0.000447799	0.9144	0.010254529	0.10376	-999	-999	-999	-999	-999	-999	-999
0.000324826	0.9144	0.009302031	0.51696	-999	-999	-999	-999	-999	-999	-999
0.000314271	0.9144	0.008336985	0.63409	-999	-999	-999	-999	-999	-999	-999
0.000416868	0.9144	0.007352473	0.84019	-999	-999	-999	-999	-999	-999	-999
0.000633289	0.9144	0.006367724	0.99279	-999	-999	-999	-999	-999	-999	-999
0.000967577	0.9144	0.005381622	1.09208	-999	-999	-999	-999	-999	-999	-999
0.001430807	0.9144	0.004374319	1.14193	-999	-999	-999	-999	-999	-999	-999
0.002034719	0.9144	0.003337617	1.15320	-999	-999	-999	-999	-999	-999	-999
0.002785975	0.9144	0.00227747	1.13143	-999	-999	-999	-999	-999	-999	-999
0.00369695	0.9144	0.001193789	1.08480	-999	-999	-999	-999	-999	-999	-999
0.004800009	0.9144	6.47678E-05	1.01905	-999	-999	-999	-999	-999	-999	-999
0.006089865	0.9144	-0.001089938	0.94307	-999	-999	-999	-999	-999	-999	-999
0.007589446	0.9144	-0.00227505	0.86589	-999	-999	-999	-999	-999	-999	-999
0.009163339	0.9144	-0.00339079	0.79144	-999	-999	-999	-999	-999	-999	-999
0.010784592	0.9144	-0.004436522	0.72450	-999	-999	-999	-999	-999	-999	-999
0.012443683	0.9144	-0.005421118	0.66462	-999	-999	-999	-999	-999	-999	-999
0.01413277	0.9144	-0.006353319	0.61102	-999	-999	-999	-999	-999	-999	-999
0.015846933	0.9144	-0.007238562	0.56306	-999	-999	-999	-999	-999	-999	-999
0.017582149	0.9144	-0.008081794	0.52020	-999	-999	-999	-999	-999	-999	-999
0.019334923	0.9144	-0.008887894	0.48164	-999	-999	-999	-999	-999	-999	-999
0.021102827	0.9144	-0.009660248	0.44689	-999	-999	-999	-999	-999	-999	-999
0.022883991	0.9144	-0.010401509	0.41516	-999	-999	-999	-999	-999	-999	-999
0.024676651	0.9144	-0.011114521	0.38575	-999	-999	-999	-999	-999	-999	-999
0.02647932	0.9144	-0.011801834	0.35865	-999	-999	-999	-999	-999	-999	-999
0.02829097	0.9144	-0.012465112	0.33384	-999	-999	-999	-999	-999	-999	-999
0.030110698	0.9144	-0.013105897	0.31122	-999	-999	-999	-999	-999	-999	-999
0.031937626	0.9144	-0.013725854	0.29031	-999	-999	-999	-999	-999	-999	-999
0.03377099	0.9144	-0.014326512	0.27063	-999	-999	-999	-999	-999	-999	-999
0.035610242	0.9144	-0.014908892	0.25213	-999	-999	-999	-999	-999	-999	-999
0.037454885	0.9144	-0.015473968	0.23504	-999	-999	-999	-999	-999	-999	-999
0.039304449	0.9144	-0.016022717	0.21939	-999	-999	-999	-999	-999	-999	-999
0.041158505	0.9144	-0.016556094	0.20467	-999	-999	-999	-999	-999	-999	-999
0.043016675	0.9144	-0.017074959	0.19072	-999	-999	-999	-999	-999	-999	-999
0.044878695	0.9144	-0.017579833	0.17778	-999	-999	-999	-999	-999	-999	-999
0.046744266	0.9144	-0.01807142	0.16563	-999	-999	-999	-999	-999	-999	-999
0.048613139	0.9144	-0.018550303	0.15412	-999	-999	-999	-999	-999	-999	-999
0.05048507	0.9144	-0.019017091	0.14326	-999	-999	-999	-999	-999	-999	-999
0.052359843	0.9144	-0.019472326	0.13291	-999	-999	-999	-999	-999	-999	-999
0.054237292	0.9144	-0.019916401	0.12316	-999	-999	-999	-999	-999	-999	-999
0.056117251	0.9144	-0.020349724	0.11396	-999	-999	-999	-999	-999	-999	-999
0.057999563	0.9144	-0.020772709	0.10525	-999	-999	-999	-999	-999	-999	-999
0.059884078	0.9144	-0.021185769	0.09705	-999	-999	-999	-999	-999	-999	-999
0.061770669	0.9144	-0.021589237	0.08921	-999	-999	-999	-999	-999	-999	-999
0.063659202	0.9144	-0.021983519	0.08181	-999	-999	-999	-999	-999	-999	-999
0.0655496	0.9144	-0.022368764	0.07483	-999	-999	-999	-999	-999	-999	-999
0.067441736	0.9144	-0.022745375	0.06816	-999	-999	-999	-999	-999	-999	-999
0.069335535	0.9144	-0.023113533	0.06184	-999	-999	-999	-999	-999	-999	-999
0.071230884	0.9144	-0.023473623	0.05584	-999	-999	-999	-999	-999	-999	-999
0.073127722	0.9144	-0.023825792	0.05008	-999	-999	-999	-999	-999	-999	-999
0.075025965	0.9144	-0.024170302	0.04461	-999	-999	-999	-999	-999	-999	-999
0.076925546	0.9144	-0.024507356	0.03940	-999	-999	-999	-999	-999	-999	-999
0.078826401	0.9144	-0.024837157	0.03444	-999	-999	-999	-999	-999	-999	-999
0.080728467	0.9144	-0.025159894	0.02971	-999	-999	-999	-999	-999	-999	-999
0.082631681	0.9144	-0.025475793	0.02520	-999	-999	-999	-999	-999	-999	-999
0.084535994	0.9144	-0.025784995	0.02093	-999	-999	-999	-999	-999	-999	-999
0.086441354	0.9144	-0.026087678	0.01675	-999	-999	-999	-999	-999	-999	-999
0.088348853	0.9144	-0.026384137	0.01275	-999	-999	-999	-999	-999	-999	-999
0.090352758	0.9144	-0.026688706	0.00889	-999	-999	-999	-999	-999	-999	-999
0.092457919	0.9144	-0.027001441	0.00492	-999	-999	-999	-999	-999	-999	-999
0.094669477	0.9144	-0.027322063	0.00095	-999	-999	-999	-999	-999	-999	-999
0.096992811	0.9144	-0.02765034	-0.00293	-999	-999	-999	-999	-999	-999	-999
0.099433541	0.9144	-0.027986213	-0.00674	-999	-999	-999	-999	-999	-999	-999
0.101997596	0.9144	-0.028329388	-0.01048	-999	-999	-999	-999	-999	-999	-999
0.104691209	0.9144	-0.028679444	-0.01414	-999	-999	-999	-999	-999	-999	-999
0.107520906	0.9144	-0.029036044	-0.01771	-999	-999	-999	-999	-999	-999	-999
0.110493519	0.9144	-0.02939894	-0.02121	-999	-999	-999	-999	-999	-999	-999
0.113616277	0.9144	-0.029767358	-0.02462	-999	-999	-999	-999	-999	-999	-999
0.116896713	0.9144	-0.030140908	-0.02791	-999	-999	-999	-999	-999	-999	-999
0.12034276	0.9144	-0.030518926	-0.03102	-999	-999	-999	-999	-999	-999	-999
0.123962737	0.9144	-0.030900705	-0.03400	-999	-999	-999	-999	-999	-999	-999
0.127710983	0.9144	-0.031280094	-0.03683	-999	-999	-999	-999	-999	-999	-999
0.131460766	0.9144	-0.031643979	-0.03940	-999	-999	-999	-999	-999	-999	-999
0.135211982	0.9144	-0.031992774	-0.04163	-999	-999	-999	-999	-999	-999	-999
0.138964516	0.9144	-0.032327103	-0.04356	-999	-999	-999	-999	-999	-999	-999
0.14271827	0.9144	-0.032647426	-0.04525	-999	-999	-999	-999	-999	-999	-999
0.14647316	0.9144	-0.032954164	-0.04672	-999	-999	-999	-999	-999	-999	-999
0.1502291	0.9144	-0.033247748	-0.04799	-999	-999	-999	-999	-999	-999	-999
0.153986014	0.9144	-0.033528611	-0.04907	-999	-999	-999	-999	-999	-999	-999
0.157743829	0.9144	-0.033797131	-0.04998	-999	-999	-999	-999	-999	-999	-999
0.161502483	0.9144	-0.034053655	-0.05071	-999	-999	-999	-999	-999	-999	-999
0.165261913	0.9144	-0.034298543	-0.05128	-999	-999	-999	-999	-999	-999	-999
0.169022065	0.9144	-0.034532081	-0.05169	-999	-999	-999	-999	-999	-999	-999
0.172782883	0.9144	-0.034754647	-0.05195	-999	-999	-999	-999	-999	-999	-999
0.176544314	0.9144	-0.034966571	-0.05207	-999	-999	-999	-999	-999	-999	-999
0.180306315	0.9144	-0.035168145	-0.05207	-999	-999	-999	-999	-999	-999	-999
0.184068841	0.9144	-0.03535968	-0.05195	-999	-999	-999	-999	-999	-999	-999
0.187831854	0.9144	-0.035541367	-0.05170	-999	-999	-999	-999	-999	-999	-999
0.191595318	0.9144	-0.035713482	-0.05134	-999	-999	-999	-999	-999	-999	-999
0.195359193	0.9144	-0.035876349	-0.05088	-999	-999	-999	-999	-999	-999	-999
0.199123447	0.9144	-0.036030225	-0.05035	-999	-999	-999	-999	-999	-999	-999
0.202888053	0.9144	-0.036175225	-0.04971	-999	-999	-999	-999	-999	-999	-999
0.206652979	0.9144	-0.036311664	-0.04899	-999	-999	-999	-999	-999	-999	-999
0.210418196	0.9144	-0.036439807	-0.04820	-999	-999	-999	-999	-999	-999	-999
0.214183684	0.9144	-0.036559753	-0.04733	-999	-999	-999	-999	-999	-999	-999
0.217949416	0.9144	-0.036671754	-0.04638	-999	-999	-999	-999	-999	-999	-999
0.221715368	0.9144	-0.036776092	-0.04537	-999	-999	-999	-999	-999	-999	-999
0.225481524	0.9144	-0.036872801	-0.04430	-999	-999	-999	-999	-999	-999	-999
0.229247861	0.9144	-0.036962165	-0.04316	-999	-999	-999	-999	-999	-999	-999
0.233014361	0.9144	-0.037044418	-0.04198	-999	-999	-999	-999	-999	-999	-999
0.236781009	0.9144	-0.037119539	-0.04074	-999	-999	-999	-999	-999	-999	-999
0.240547786	0.9144	-0.037187891	-0.03946	-999	-999	-999	-999	-999	-999	-999
0.244314679	0.9144	-0.037249539	-0.03813	-999	-999	-999	-999	-999	-999	-999
0.248081674	0.9144	-0.037304626	-0.03675	-999	-999	-999	-999	-999	-999	-999
0.251848755	0.9144	-0.037353417	-0.03532	-999	-999	-999	-999	-999	-999	-999
0.255615914	0.9144	-0.037395862	-0.03385	-999	-999	-999	-999	-999	-999	-999
0.259383135	0.9144	-0.037432278	-0.03234	-999	-999	-999	-999	-999	-999	-999
0.263150409	0.9144	-0.037462716	-0.03080	-999	-999	-999	-999	-999	-999	-999
0.266917727	0.9144	-0.037487304	-0.02922	-999	-999	-999	-999	-999	-999	-999
0.270685076	0.9144	-0.037506258	-0.02762	-999	-999	-999	-999	-999	-999	-999
0.274452451	0.9144	-0.037519525	-0.02598	-999	-999	-999	-999	-999	-999	-999
0.27821984	0.9144	-0.037527395	-0.02431	-999	-999	-999	-999	-999	-999	-999
0.281987236	0.9144	-0.037529883	-0.02261	-999	-999	-999	-999	-999	-999	-999
0.285754633	0.9144	-0.037527128	-0.02089	-999	-999	-999	-999	-999	-999	-999
0.289522022	0.9144	-0.037519282	-0.01915	-999	-999	-999	-999	-999	-999	-999
0.293289397	0.9144	-0.037506314	-0.01737	-999	-999	-999	-999	-999	-999	-999
0.297056752	0.9144	-0.037488465	-0.01557	-999	-999	-999	-999	-999	-999	-999
0.300824081	0.9144	-0.03746575	-0.01375	-999	-999	-999	-999	-999	-999	-999
0.304591378	0.9144	-0.037438267	-0.01191	-999	-999	-999	-999	-999	-999	-999
0.308358639	0.9144	-0.037406159	-0.01004	-999	-999	-999	-999	-999	-999	-999
0.312125857	0.9144	-0.037369404	-0.00815	-999	-999	-999	-999	-999	-999	-999
0.315893029	0.9144	-0.037328167	-0.00623	-999	-999	-999	-999	-999	-999	-999
0.31966015	0.9144	-0.037282534	-0.00430	-999	-999	-999	-999	-999	-999	-999
0.323427215	0.9144	-0.03723248	-0.00234	-999	-999	-999	-999	-999	-999	-999
0.32719422	0.9144	-0.037178162	-0.00035	-999	-999	-999	-999	-999	-999	-999
0.330961164	0.9144	-0.037119655	0.00166	-999	-999	-999	-999	-999	-999	-999
0.334728039	0.9144	-0.037056942	0.00369	-999	-999	-999	-999	-999	-999	-999
0.338494844	0.9144	-0.03699014	0.00575	-999	-999	-999	-999	-999	-999	-999
0.342261576	0.9144	-0.036919315	0.00783	-999	-999	-999	-999	-999	-999	-999
0.34602823	0.9144	-0.036844515	0.00994	-999	-999	-999	-999	-999	-999	-999
0.349794804	0.9144	-0.036765742	0.01208	-999	-999	-999	-999	-999	-999	-999
0.353561293	0.9144	-0.036683019	0.01426	-999	-999	-999	-999	-999	-999	-999
0.357327699	0.9144	-0.036596566	0.01645	-999	-999	-999	-999	-999	-999	-999
0.361094015	0.9144	-0.036506322	0.01867	-999	-999	-999	-999	-999	-999	-999
0.36486024	0.9144	-0.036412318	0.02092	-999	-999	-999	-999	-999	-999	-999
0.368626368	0.9144	-0.036314555	0.02321	-999	-999	-999	-999	-999	-999	-999
0.372392399	0.9144	-0.036213091	0.02554	-999	-999	-999	-999	-999	-999	-999
0.37615833	0.9144	-0.036107975	0.02792	-999	-999	-999	-999	-999	-999	-999
0.379924158	0.9144	-0.035999247	0.03032	-999	-999	-999	-999	-999	-999	-999
0.383689881	0.9144	-0.035886933	0.03277	-999	-999	-999	-999	-999	-999	-999
0.387455495	0.9144	-0.03577104	0.03525	-999	-999	-999	-999	-999	-999	-999
0.391220999	0.9144	-0.035651594	0.03778	-999	-999	-999	-999	-999	-999	-999
0.394986389	0.9144	-0.035528628	0.04036	-999	-999	-999	-999	-999	-999	-999
0.398751663	0.9144	-0.035402162	0.04299	-999	-999	-999	-999	-999	-999	-999
0.402516816	0.9144	-0.035272137	0.04568	-999	-999	-999	-999	-999	-999	-999
0.406281846	0.9144	-0.035138618	0.04842	-999	-999	-999	-999	-999	-999	-999
0.410046752	0.9144	-0.035001617	0.05122	-999	-999	-999	-999	-999	-999	-999
0.41381153	0.9144	-0.034861146	0.05408	-999	-999	-999	-999	-999	-999	-999
0.417576177	0.9144	-0.034717223	0.05700	-999	-999	-999	-999	-999	-999	-999
0.42134069	0.9144	-0.034569844	0.05999	-999	-999	-999	-999	-999	-999	-999
0.425105069	0.9144	-0.034419041	0.06306	-999	-999	-999	-999	-999	-999	-999
0.4288693	0.9144	-0.034264632	0.06623	-999	-999	-999	-999	-999	-999	-999
0.43263339	0.9144	-0.034106791	0.06949	-999	-999	-999	-999	-999	-999	-999
0.436397334	0.9144	-0.033945524	0.07284	-999	-999	-999	-999	-999	-999	-999
0.440161124	0.9144	-0.033780702	0.07629	-999	-999	-999	-999	-999	-999	-999
0.443924759	0.9144	-0.033612364	0.07987	-999	-999	-999	-999	-999	-999	-999
0.447688238	0.9144	-0.033440592	0.08356	-999	-999	-999	-999	-999	-999	-999
0.451451548	0.9144	-0.033265142	0.08739	-999	-999	-999	-999	-999	-999	-999
0.455214696	0.9144	-0.033086256	0.09136	-999	-999	-999	-999	-999	-999	-999
0.458977666	0.9144	-0.032903673	0.09550	-999	-999	-999	-999	-999	-999	-999
0.462740464	0.9144	-0.032717568	0.09980	-999	-999	-999	-999	-999	-999	-999
0.466503081	0.9144	-0.032527839	0.10428	-999	-999	-999	-999	-999	-999	-999
0.470265508	0.9144	-0.032334378	0.10897	-999	-999	-999	-999	-999	-999	-999
0.474027746	0.9144	-0.032137276	0.11389	-999	-999	-999	-999	-999	-999	-999
0.477789787	0.9144	-0.03193645	0.11905	-999	-999	-999	-999	-999	-999	-999
0.481551626	0.9144	-0.031731882	0.12449	-999	-999	-999	-999	-999	-999	-999
0.485313257	0.9144	-0.031523511	0.13024	-999	-999	-999	-999	-999	-999	-999
0.489074674	0.9144	-0.031311322	0.13632	-999	-999	-999	-999	-999	-999	-999
0.492835872	0.9144	-0.031095281	0.14279	-999	-999	-999	-999	-999	-999	-999
0.49659684	0.9144	-0.030875279	0.14968	-999	-999	-999	-999	-999	-999	-999
0.500357577	0.9144	-0.030651358	0.15707	-999	-999	-999	-999	-999	-999	-999
0.504118067	0.9144	-0.03042332	0.16504	-999	-999	-999	-999	-999	-999	-999
0.507878316	0.9144	-0.030191364	0.17367	-999	-999	-999	-999	-999	-999	-999
0.511638312	0.9144	-0.029955325	0.18308	-999	-999	-999	-999	-999	-999	-999
0.515398041	0.9144	-0.029715059	0.19341	-999	-999	-999	-999	-999	-999	-999
0.519157502	0.9144	-0.029470658	0.20487	-999	-999	-999	-999	-999	-999	-999
0.52291668	0.9144	-0.029221928	0.21776	-999	-999	-999	-999	-999	-999	-999
0.526690138	0.9144	-0.02896779	0.23081	-999	-999	-999	-999	-999	-999	-999
0.529048409	0.9144	-0.02880689	0.24118	-999	-999	-999	-999	-999	-999	-999
0.530522261	0.9144	-0.028705344	0.24833	-999	-999	-999	-999	-999	-999	-999
0.531443394	0.9144	-0.028641528	0.25175	-999	-999	-999	-999	-999	-999	-999
0.532019099	0.9144	-0.028601586	0.25572	-999	-999	-999	-999	-999	-999	-999
0.532378908	0.9144	-0.028576538	0.25925	-999	-999	-999	-999	-999	-999	-999