#+++++++++++++++++++++++++++++++++++++++++++++++++++++++++++++++++++++++++++++++++++++++++++++++++++++++++++++++++++++++++++++++++
#
#   IPW-3 Cut/Slice DATA SUBMITTAL FORM for Test Case NACA0012_CP CFD, June 13th 2026
#
#       NOMENCLATURE:
#                  X [m]:  X-coordinate of the surface (clean for reference)
#                  Y [m]:  Y-coordinate of the surface (clean for reference)
#                  Z [m]:  Z-coordinate of the surface (clean for reference)
#                 Cp [-]:  Pressure coefficient
#            HTC [W/m2K]:  Convective Heat Transfer Coefficient (on the rough surface)
#               Beta [-]:  Collection efficiency
#                 Ts [K]:  Surface temperature
#                 FF [-]:  Freezing fraction
#                  k [m]:  Surface roughness height if variable (OPTIONAL)
#         RhoIce [kg/m3]:  Ice density (OPTIONAL)
#      HTC_CLEAN [W/m2K]:  Convective Heat Transfer Coefficient on the surface without roughness (OPTIONAL)
#
#                XXmm:  Roughness height used for the case, in mm.
#                       In the zone name, use the format KS_XXmm.
#                       For example, if k_s = 1.5 mm, use KS_1p5mm. 
#                       For Variable roughness, use KS_VAR
#
#    FLOW CONDITIONS:
#                                   AOA: 4.0 deg
#                           Mach Number: 0.3151 [-]
#       Mean aerodynamic chord (M.A.C.): 0.5334 [m]
#                       Reynolds Number: 3.8441 million (based on MAC)
#                       Freestream Temp: 267.55 [K]
#                        Reference area: 0.97548 [m2]
#               Moment Reference Center: 0.13335, 0, 0 [m] (X, Y, Z)
#
#    ICING CONDITIONS:
#                           Icing Time: 420 [s]
#                                  LWC: 0.55 [g/m3]
#                                  MVD: 20 [μm]
#
#              NOTES: 1. Please use at least 5 decimal places in the numerical values
#                     2. If data are NOT provided, please fill data fields with a numerical value of "-999" 
#
#++++++++++++++++++++++++++++++++++++++++++++++++++++++++++++++++++++++++++++++++++++++++++++++++++++++++++++++++++++

                                                    <- Optional ->                 
VARIABLES = "X" "Y" "Z" "Cp" "HTC" "Beta" "Ts" "FF" "k" "RhoIce" "HTC_CLEAN"

ZONE T="SLICE_Y_0p9144_BINS01_KS_0mm_CUTDATA"
0.532472672	0.9144	-0.027235644	0.25955	-999	-999	-999	-999	-999	-999	-999
0.532224027	0.9144	-0.027182874	0.25784	-999	-999	-999	-999	-999	-999	-999
0.531826186	0.9144	-0.027098484	0.25583	-999	-999	-999	-999	-999	-999	-999
0.531189609	0.9144	-0.026963603	0.25375	-999	-999	-999	-999	-999	-999	-999
0.530171065	0.9144	-0.026747896	0.24914	-999	-999	-999	-999	-999	-999	-999
0.528541221	0.9144	-0.026403584	0.24173	-999	-999	-999	-999	-999	-999	-999
0.526018362	0.9144	-0.02587225	0.23166	-999	-999	-999	-999	-999	-999	-999
0.52349506	0.9144	-0.025343026	0.22083	-999	-999	-999	-999	-999	-999	-999
0.520971354	0.9144	-0.024815735	0.21030	-999	-999	-999	-999	-999	-999	-999
0.518447231	0.9144	-0.02429044	0.20006	-999	-999	-999	-999	-999	-999	-999
0.5159227	0.9144	-0.023767109	0.19009	-999	-999	-999	-999	-999	-999	-999
0.513397771	0.9144	-0.023245707	0.18041	-999	-999	-999	-999	-999	-999	-999
0.510872461	0.9144	-0.022726148	0.17099	-999	-999	-999	-999	-999	-999	-999
0.508346737	0.9144	-0.022208604	0.16183	-999	-999	-999	-999	-999	-999	-999
0.505820645	0.9144	-0.021692863	0.15291	-999	-999	-999	-999	-999	-999	-999
0.503294166	0.9144	-0.021179021	0.14423	-999	-999	-999	-999	-999	-999	-999
0.500767326	0.9144	-0.020666959	0.13577	-999	-999	-999	-999	-999	-999	-999
0.498240092	0.9144	-0.020156838	0.12752	-999	-999	-999	-999	-999	-999	-999
0.495712506	0.9144	-0.019648471	0.11949	-999	-999	-999	-999	-999	-999	-999
0.493184541	0.9144	-0.019141986	0.11165	-999	-999	-999	-999	-999	-999	-999
0.490656223	0.9144	-0.01863727	0.10399	-999	-999	-999	-999	-999	-999	-999
0.488127556	0.9144	-0.018134309	0.09651	-999	-999	-999	-999	-999	-999	-999
0.485598536	0.9144	-0.017633122	0.08919	-999	-999	-999	-999	-999	-999	-999
0.483069159	0.9144	-0.017133736	0.08204	-999	-999	-999	-999	-999	-999	-999
0.480539442	0.9144	-0.016636081	0.07504	-999	-999	-999	-999	-999	-999	-999
0.478009385	0.9144	-0.016140156	0.06818	-999	-999	-999	-999	-999	-999	-999
0.475478992	0.9144	-0.015645947	0.06145	-999	-999	-999	-999	-999	-999	-999
0.472948265	0.9144	-0.015153452	0.05485	-999	-999	-999	-999	-999	-999	-999
0.470417208	0.9144	-0.014662656	0.04837	-999	-999	-999	-999	-999	-999	-999
0.467885825	0.9144	-0.014173538	0.04201	-999	-999	-999	-999	-999	-999	-999
0.465354109	0.9144	-0.013686156	0.03576	-999	-999	-999	-999	-999	-999	-999
0.462822073	0.9144	-0.013200437	0.02961	-999	-999	-999	-999	-999	-999	-999
0.460289716	0.9144	-0.012716391	0.02356	-999	-999	-999	-999	-999	-999	-999
0.45775705	0.9144	-0.012233963	0.01759	-999	-999	-999	-999	-999	-999	-999
0.455224074	0.9144	-0.011753171	0.01170	-999	-999	-999	-999	-999	-999	-999
0.452690769	0.9144	-0.011274112	0.00591	-999	-999	-999	-999	-999	-999	-999
0.450157163	0.9144	-0.010796649	0.00019	-999	-999	-999	-999	-999	-999	-999
0.447623259	0.9144	-0.010320769	-0.00545	-999	-999	-999	-999	-999	-999	-999
0.445089035	0.9144	-0.009846599	-0.01103	-999	-999	-999	-999	-999	-999	-999
0.442554513	0.9144	-0.009374018	-0.01654	-999	-999	-999	-999	-999	-999	-999
0.440019702	0.9144	-0.008902998	-0.02199	-999	-999	-999	-999	-999	-999	-999
0.437484569	0.9144	-0.008433711	-0.02738	-999	-999	-999	-999	-999	-999	-999
0.434949154	0.9144	-0.007965945	-0.03271	-999	-999	-999	-999	-999	-999	-999
0.432413435	0.9144	-0.007499833	-0.03799	-999	-999	-999	-999	-999	-999	-999
0.429877427	0.9144	-0.0070353	-0.04322	-999	-999	-999	-999	-999	-999	-999
0.427341125	0.9144	-0.006572368	-0.04841	-999	-999	-999	-999	-999	-999	-999
0.424804526	0.9144	-0.006111073	-0.05355	-999	-999	-999	-999	-999	-999	-999
0.422267646	0.9144	-0.00565132	-0.05866	-999	-999	-999	-999	-999	-999	-999
0.419730464	0.9144	-0.005193241	-0.06372	-999	-999	-999	-999	-999	-999	-999
0.417193005	0.9144	-0.004736695	-0.06875	-999	-999	-999	-999	-999	-999	-999
0.414655249	0.9144	-0.004281802	-0.07375	-999	-999	-999	-999	-999	-999	-999
0.412117214	0.9144	-0.003828474	-0.07872	-999	-999	-999	-999	-999	-999	-999
0.409578887	0.9144	-0.003376782	-0.08366	-999	-999	-999	-999	-999	-999	-999
0.407040276	0.9144	-0.002926688	-0.08857	-999	-999	-999	-999	-999	-999	-999
0.40450139	0.9144	-0.002478145	-0.09346	-999	-999	-999	-999	-999	-999	-999
0.4019622	0.9144	-0.002031327	-0.09833	-999	-999	-999	-999	-999	-999	-999
0.399422752	0.9144	-0.001585981	-0.10317	-999	-999	-999	-999	-999	-999	-999
0.396882994	0.9144	-0.001142408	-0.10798	-999	-999	-999	-999	-999	-999	-999
0.394342967	0.9144	-0.00070037	-0.11279	-999	-999	-999	-999	-999	-999	-999
0.391802659	0.9144	-0.000259954	-0.11757	-999	-999	-999	-999	-999	-999	-999
0.389262055	0.9144	0.000178747	-0.12234	-999	-999	-999	-999	-999	-999	-999
0.386721188	0.9144	0.000615925	-0.12709	-999	-999	-999	-999	-999	-999	-999
0.384180019	0.9144	0.001051348	-0.13183	-999	-999	-999	-999	-999	-999	-999
0.381638572	0.9144	0.001485141	-0.13656	-999	-999	-999	-999	-999	-999	-999
0.37909686	0.9144	0.00191738	-0.14129	-999	-999	-999	-999	-999	-999	-999
0.376554831	0.9144	0.002347754	-0.14599	-999	-999	-999	-999	-999	-999	-999
0.374012534	0.9144	0.002776538	-0.15069	-999	-999	-999	-999	-999	-999	-999
0.37146997	0.9144	0.003203737	-0.15540	-999	-999	-999	-999	-999	-999	-999
0.368927086	0.9144	0.003629028	-0.16008	-999	-999	-999	-999	-999	-999	-999
0.366383932	0.9144	0.004052703	-0.16478	-999	-999	-999	-999	-999	-999	-999
0.363840509	0.9144	0.004474752	-0.16947	-999	-999	-999	-999	-999	-999	-999
0.361296767	0.9144	0.004894879	-0.17415	-999	-999	-999	-999	-999	-999	-999
0.358752747	0.9144	0.005313323	-0.17884	-999	-999	-999	-999	-999	-999	-999
0.356208459	0.9144	0.00573013	-0.18354	-999	-999	-999	-999	-999	-999	-999
0.353663862	0.9144	0.006145048	-0.18823	-999	-999	-999	-999	-999	-999	-999
0.351118979	0.9144	0.00655821	-0.19293	-999	-999	-999	-999	-999	-999	-999
0.348573794	0.9144	0.006969506	-0.19762	-999	-999	-999	-999	-999	-999	-999
0.346028324	0.9144	0.007379032	-0.20232	-999	-999	-999	-999	-999	-999	-999
0.343482552	0.9144	0.00778668	-0.20704	-999	-999	-999	-999	-999	-999	-999
0.340936488	0.9144	0.008192497	-0.21176	-999	-999	-999	-999	-999	-999	-999
0.338390123	0.9144	0.008596426	-0.21649	-999	-999	-999	-999	-999	-999	-999
0.335843459	0.9144	0.008998462	-0.22122	-999	-999	-999	-999	-999	-999	-999
0.333296497	0.9144	0.009398604	-0.22597	-999	-999	-999	-999	-999	-999	-999
0.330749228	0.9144	0.00979679	-0.23073	-999	-999	-999	-999	-999	-999	-999
0.32820166	0.9144	0.010193056	-0.23550	-999	-999	-999	-999	-999	-999	-999
0.325653779	0.9144	0.010587312	-0.24028	-999	-999	-999	-999	-999	-999	-999
0.323105598	0.9144	0.010979615	-0.24507	-999	-999	-999	-999	-999	-999	-999
0.320557099	0.9144	0.011369852	-0.24987	-999	-999	-999	-999	-999	-999	-999
0.318008297	0.9144	0.011758102	-0.25471	-999	-999	-999	-999	-999	-999	-999
0.315459172	0.9144	0.012144231	-0.25957	-999	-999	-999	-999	-999	-999	-999
0.312909742	0.9144	0.012528332	-0.26445	-999	-999	-999	-999	-999	-999	-999
0.310359985	0.9144	0.012910261	-0.26935	-999	-999	-999	-999	-999	-999	-999
0.307809915	0.9144	0.013290101	-0.27427	-999	-999	-999	-999	-999	-999	-999
0.305259517	0.9144	0.013667726	-0.27921	-999	-999	-999	-999	-999	-999	-999
0.302708801	0.9144	0.014043197	-0.28417	-999	-999	-999	-999	-999	-999	-999
0.300157754	0.9144	0.014416411	-0.28915	-999	-999	-999	-999	-999	-999	-999
0.297606383	0.9144	0.014787401	-0.29415	-999	-999	-999	-999	-999	-999	-999
0.295054678	0.9144	0.015156095	-0.29918	-999	-999	-999	-999	-999	-999	-999
0.292502641	0.9144	0.015522478	-0.30423	-999	-999	-999	-999	-999	-999	-999
0.289950269	0.9144	0.015886526	-0.30931	-999	-999	-999	-999	-999	-999	-999
0.287397557	0.9144	0.016248172	-0.31441	-999	-999	-999	-999	-999	-999	-999
0.284844509	0.9144	0.016607445	-0.31954	-999	-999	-999	-999	-999	-999	-999
0.282291112	0.9144	0.016964228	-0.32471	-999	-999	-999	-999	-999	-999	-999
0.279737379	0.9144	0.0173186	-0.32990	-999	-999	-999	-999	-999	-999	-999
0.277183286	0.9144	0.017670369	-0.33512	-999	-999	-999	-999	-999	-999	-999
0.274628855	0.9144	0.01801967	-0.34037	-999	-999	-999	-999	-999	-999	-999
0.272074059	0.9144	0.018366296	-0.34566	-999	-999	-999	-999	-999	-999	-999
0.269518917	0.9144	0.018710362	-0.35098	-999	-999	-999	-999	-999	-999	-999
0.266963411	0.9144	0.01905171	-0.35634	-999	-999	-999	-999	-999	-999	-999
0.26440755	0.9144	0.019390389	-0.36173	-999	-999	-999	-999	-999	-999	-999
0.261851323	0.9144	0.019726299	-0.36715	-999	-999	-999	-999	-999	-999	-999
0.25929473	0.9144	0.020059412	-0.37260	-999	-999	-999	-999	-999	-999	-999
0.256737772	0.9144	0.020389706	-0.37809	-999	-999	-999	-999	-999	-999	-999
0.254180438	0.9144	0.02071708	-0.38361	-999	-999	-999	-999	-999	-999	-999
0.251622738	0.9144	0.021041587	-0.38918	-999	-999	-999	-999	-999	-999	-999
0.249064654	0.9144	0.021363043	-0.39478	-999	-999	-999	-999	-999	-999	-999
0.246506203	0.9144	0.021681573	-0.40041	-999	-999	-999	-999	-999	-999	-999
0.243947358	0.9144	0.021996918	-0.40608	-999	-999	-999	-999	-999	-999	-999
0.241388143	0.9144	0.022309248	-0.41178	-999	-999	-999	-999	-999	-999	-999
0.23882853	0.9144	0.022618293	-0.41751	-999	-999	-999	-999	-999	-999	-999
0.23626854	0.9144	0.022924209	-0.42329	-999	-999	-999	-999	-999	-999	-999
0.233708151	0.9144	0.023226761	-0.42910	-999	-999	-999	-999	-999	-999	-999
0.231147379	0.9144	0.023526053	-0.43495	-999	-999	-999	-999	-999	-999	-999
0.228586204	0.9144	0.023821883	-0.44084	-999	-999	-999	-999	-999	-999	-999
0.22602464	0.9144	0.024114321	-0.44678	-999	-999	-999	-999	-999	-999	-999
0.223462671	0.9144	0.024403187	-0.45275	-999	-999	-999	-999	-999	-999	-999
0.220900307	0.9144	0.024688532	-0.45876	-999	-999	-999	-999	-999	-999	-999
0.218337535	0.9144	0.024970196	-0.46481	-999	-999	-999	-999	-999	-999	-999
0.215774366	0.9144	0.025248213	-0.47093	-999	-999	-999	-999	-999	-999	-999
0.213210785	0.9144	0.025522406	-0.47714	-999	-999	-999	-999	-999	-999	-999
0.210646804	0.9144	0.025792837	-0.48338	-999	-999	-999	-999	-999	-999	-999
0.208082405	0.9144	0.026059276	-0.48968	-999	-999	-999	-999	-999	-999	-999
0.205517607	0.9144	0.026321843	-0.49601	-999	-999	-999	-999	-999	-999	-999
0.202952386	0.9144	0.026580247	-0.50241	-999	-999	-999	-999	-999	-999	-999
0.200386768	0.9144	0.026834674	-0.50886	-999	-999	-999	-999	-999	-999	-999
0.197820722	0.9144	0.027084754	-0.51534	-999	-999	-999	-999	-999	-999	-999
0.195254274	0.9144	0.02733067	-0.52188	-999	-999	-999	-999	-999	-999	-999
0.192687406	0.9144	0.02757216	-0.52848	-999	-999	-999	-999	-999	-999	-999
0.190120127	0.9144	0.027809242	-0.53514	-999	-999	-999	-999	-999	-999	-999
0.187552435	0.9144	0.028041814	-0.54185	-999	-999	-999	-999	-999	-999	-999
0.184984326	0.9144	0.028269732	-0.54864	-999	-999	-999	-999	-999	-999	-999
0.182415814	0.9144	0.028493059	-0.55550	-999	-999	-999	-999	-999	-999	-999
0.179846877	0.9144	0.028711449	-0.56241	-999	-999	-999	-999	-999	-999	-999
0.177277536	0.9144	0.028925029	-0.56939	-999	-999	-999	-999	-999	-999	-999
0.174707787	0.9144	0.02913365	-0.57644	-999	-999	-999	-999	-999	-999	-999
0.172137623	0.9144	0.029337091	-0.58356	-999	-999	-999	-999	-999	-999	-999
0.169567063	0.9144	0.02953546	-0.59078	-999	-999	-999	-999	-999	-999	-999
0.166996096	0.9144	0.029728483	-0.59807	-999	-999	-999	-999	-999	-999	-999
0.164424726	0.9144	0.029916069	-0.60541	-999	-999	-999	-999	-999	-999	-999
0.161852965	0.9144	0.030098211	-0.61287	-999	-999	-999	-999	-999	-999	-999
0.15928081	0.9144	0.030274705	-0.62043	-999	-999	-999	-999	-999	-999	-999
0.156708262	0.9144	0.030445369	-0.62806	-999	-999	-999	-999	-999	-999	-999
0.154135336	0.9144	0.030610244	-0.63580	-999	-999	-999	-999	-999	-999	-999
0.151562036	0.9144	0.030769165	-0.64362	-999	-999	-999	-999	-999	-999	-999
0.148988358	0.9144	0.030921842	-0.65147	-999	-999	-999	-999	-999	-999	-999
0.146414315	0.9144	0.031068251	-0.65939	-999	-999	-999	-999	-999	-999	-999
0.143839918	0.9144	0.03120829	-0.66741	-999	-999	-999	-999	-999	-999	-999
0.141265176	0.9144	0.031341819	-0.67554	-999	-999	-999	-999	-999	-999	-999
0.138690092	0.9144	0.0314686	-0.68374	-999	-999	-999	-999	-999	-999	-999
0.136114677	0.9144	0.031588468	-0.69201	-999	-999	-999	-999	-999	-999	-999
0.133538945	0.9144	0.031701319	-0.70038	-999	-999	-999	-999	-999	-999	-999
0.130962908	0.9144	0.031806979	-0.70885	-999	-999	-999	-999	-999	-999	-999
0.12838658	0.9144	0.031905278	-0.71745	-999	-999	-999	-999	-999	-999	-999
0.125809976	0.9144	0.031996047	-0.72619	-999	-999	-999	-999	-999	-999	-999
0.123233109	0.9144	0.032079055	-0.73507	-999	-999	-999	-999	-999	-999	-999
0.120655999	0.9144	0.032154119	-0.74412	-999	-999	-999	-999	-999	-999	-999
0.118078665	0.9144	0.03222102	-0.75334	-999	-999	-999	-999	-999	-999	-999
0.115501126	0.9144	0.032279543	-0.76272	-999	-999	-999	-999	-999	-999	-999
0.112919132	0.9144	0.032329538	-0.77215	-999	-999	-999	-999	-999	-999	-999
0.110459945	0.9144	0.03236896	-0.78132	-999	-999	-999	-999	-999	-999	-999
0.10811775	0.9144	0.032398759	-0.79012	-999	-999	-999	-999	-999	-999	-999
0.10588701	0.9144	0.032419978	-0.79864	-999	-999	-999	-999	-999	-999	-999
0.103762443	0.9144	0.032433666	-0.80691	-999	-999	-999	-999	-999	-999	-999
0.101739015	0.9144	0.032440378	-0.81492	-999	-999	-999	-999	-999	-999	-999
0.09981193	0.9144	0.032441185	-0.82271	-999	-999	-999	-999	-999	-999	-999
0.097976617	0.9144	0.032436583	-0.83024	-999	-999	-999	-999	-999	-999	-999
0.096228719	0.9144	0.032427226	-0.83747	-999	-999	-999	-999	-999	-999	-999
0.094564085	0.9144	0.032413786	-0.84447	-999	-999	-999	-999	-999	-999	-999
0.09297876	0.9144	0.032396759	-0.85126	-999	-999	-999	-999	-999	-999	-999
0.091468971	0.9144	0.032376734	-0.85787	-999	-999	-999	-999	-999	-999	-999
0.090031132	0.9144	0.03235392	-0.86404	-999	-999	-999	-999	-999	-999	-999
0.088592322	0.9144	0.032327519	-0.87019	-999	-999	-999	-999	-999	-999	-999
0.087153585	0.9144	0.03229741	-0.87668	-999	-999	-999	-999	-999	-999	-999
0.085714931	0.9144	0.032263574	-0.88315	-999	-999	-999	-999	-999	-999	-999
0.084276374	0.9144	0.032225853	-0.88977	-999	-999	-999	-999	-999	-999	-999
0.082837919	0.9144	0.03218441	-0.89654	-999	-999	-999	-999	-999	-999	-999
0.081399587	0.9144	0.032138905	-0.90337	-999	-999	-999	-999	-999	-999	-999
0.079961389	0.9144	0.032089326	-0.91024	-999	-999	-999	-999	-999	-999	-999
0.078523341	0.9144	0.03203557	-0.91718	-999	-999	-999	-999	-999	-999	-999
0.077085459	0.9144	0.031977576	-0.92420	-999	-999	-999	-999	-999	-999	-999
0.075647757	0.9144	0.031915256	-0.93134	-999	-999	-999	-999	-999	-999	-999
0.074210253	0.9144	0.03184853	-0.93862	-999	-999	-999	-999	-999	-999	-999
0.072772965	0.9144	0.031777289	-0.94601	-999	-999	-999	-999	-999	-999	-999
0.071335915	0.9144	0.031701422	-0.95353	-999	-999	-999	-999	-999	-999	-999
0.069899123	0.9144	0.031620806	-0.96113	-999	-999	-999	-999	-999	-999	-999
0.068462612	0.9144	0.031535321	-0.96889	-999	-999	-999	-999	-999	-999	-999
0.067026408	0.9144	0.031444835	-0.97680	-999	-999	-999	-999	-999	-999	-999
0.065590537	0.9144	0.031349209	-0.98475	-999	-999	-999	-999	-999	-999	-999
0.064155024	0.9144	0.031248347	-0.99292	-999	-999	-999	-999	-999	-999	-999
0.062719897	0.9144	0.03114213	-1.00131	-999	-999	-999	-999	-999	-999	-999
0.061285187	0.9144	0.031030435	-1.00981	-999	-999	-999	-999	-999	-999	-999
0.059850934	0.9144	0.030913008	-1.01854	-999	-999	-999	-999	-999	-999	-999
0.05841717	0.9144	0.030789754	-1.02740	-999	-999	-999	-999	-999	-999	-999
0.056983939	0.9144	0.030660453	-1.03630	-999	-999	-999	-999	-999	-999	-999
0.055551283	0.9144	0.030524925	-1.04546	-999	-999	-999	-999	-999	-999	-999
0.054119243	0.9144	0.030383037	-1.05488	-999	-999	-999	-999	-999	-999	-999
0.052687875	0.9144	0.030234527	-1.06447	-999	-999	-999	-999	-999	-999	-999
0.051257223	0.9144	0.030079272	-1.07436	-999	-999	-999	-999	-999	-999	-999
0.049827349	0.9144	0.029916999	-1.08459	-999	-999	-999	-999	-999	-999	-999
0.048398324	0.9144	0.029747418	-1.09486	-999	-999	-999	-999	-999	-999	-999
0.046970223	0.9144	0.029570228	-1.10528	-999	-999	-999	-999	-999	-999	-999
0.045543115	0.9144	0.029385207	-1.11620	-999	-999	-999	-999	-999	-999	-999
0.04411708	0.9144	0.029192085	-1.12751	-999	-999	-999	-999	-999	-999	-999
0.042692206	0.9144	0.028990579	-1.13914	-999	-999	-999	-999	-999	-999	-999
0.041268595	0.9144	0.028780336	-1.15121	-999	-999	-999	-999	-999	-999	-999
0.039846363	0.9144	0.028560957	-1.16359	-999	-999	-999	-999	-999	-999	-999
0.038425646	0.9144	0.028331977	-1.17622	-999	-999	-999	-999	-999	-999	-999
0.037006584	0.9144	0.028092951	-1.18909	-999	-999	-999	-999	-999	-999	-999
0.035589317	0.9144	0.027843505	-1.20235	-999	-999	-999	-999	-999	-999	-999
0.034174	0.9144	0.027583221	-1.21586	-999	-999	-999	-999	-999	-999	-999
0.032760836	0.9144	0.027311489	-1.22969	-999	-999	-999	-999	-999	-999	-999
0.031350061	0.9144	0.027027615	-1.24337	-999	-999	-999	-999	-999	-999	-999
0.029941928	0.9144	0.026730914	-1.25859	-999	-999	-999	-999	-999	-999	-999
0.028536716	0.9144	0.026420673	-1.27483	-999	-999	-999	-999	-999	-999	-999
0.027134725	0.9144	0.026096187	-1.29094	-999	-999	-999	-999	-999	-999	-999
0.025736302	0.9144	0.025756656	-1.30811	-999	-999	-999	-999	-999	-999	-999
0.024341893	0.9144	0.025400996	-1.32534	-999	-999	-999	-999	-999	-999	-999
0.022952048	0.9144	0.025027898	-1.34197	-999	-999	-999	-999	-999	-999	-999
0.021567342	0.9144	0.024636162	-1.35841	-999	-999	-999	-999	-999	-999	-999
0.020188417	0.9144	0.024224536	-1.37797	-999	-999	-999	-999	-999	-999	-999
0.018816018	0.9144	0.023791648	-1.39770	-999	-999	-999	-999	-999	-999	-999
0.017451229	0.9144	0.023335338	-1.41605	-999	-999	-999	-999	-999	-999	-999
0.016095284	0.9144	0.02285338	-1.43272	-999	-999	-999	-999	-999	-999	-999
0.01474963	0.9144	0.022343395	-1.45093	-999	-999	-999	-999	-999	-999	-999
0.013415805	0.9144	0.021803228	-1.47121	-999	-999	-999	-999	-999	-999	-999
0.012096225	0.9144	0.02122914	-1.48524	-999	-999	-999	-999	-999	-999	-999
0.010793911	0.9144	0.020616892	-1.49608	-999	-999	-999	-999	-999	-999	-999
0.009512443	0.9144	0.019962135	-1.50305	-999	-999	-999	-999	-999	-999	-999
0.008256079	0.9144	0.01926041	-1.50325	-999	-999	-999	-999	-999	-999	-999
0.007086154	0.9144	0.018539487	-1.49123	-999	-999	-999	-999	-999	-999	-999
0.00602897	0.9144	0.017817166	-1.46577	-999	-999	-999	-999	-999	-999	-999
0.005073951	0.9144	0.01709194	-1.42738	-999	-999	-999	-999	-999	-999	-999
0.004234808	0.9144	0.016379429	-1.36667	-999	-999	-999	-999	-999	-999	-999
0.003496784	0.9144	0.015673756	-1.27913	-999	-999	-999	-999	-999	-999	-999
0.002843539	0.9144	0.01496509	-1.16595	-999	-999	-999	-999	-999	-999	-999
0.002275137	0.9144	0.014259389	-1.02868	-999	-999	-999	-999	-999	-999	-999
0.001785929	0.9144	0.013555333	-0.86844	-999	-999	-999	-999	-999	-999	-999
0.001373981	0.9144	0.012854894	-0.68468	-999	-999	-999	-999	-999	-999	-999
0.001035627	0.9144	0.012157881	-0.47980	-999	-999	-999	-999	-999	-999	-999
0.000762954	0.9144	0.011452951	-0.26194	-999	-999	-999	-999	-999	-999	-999
0.000552772	0.9144	0.010736346	-0.03949	-999	-999	-999	-999	-999	-999	-999
0.000406718	0.9144	0.010017238	0.17988	-999	-999	-999	-999	-999	-999	-999
0.000324826	0.9144	0.009302031	0.49105	-999	-999	-999	-999	-999	-999	-999
0.000306439	0.9144	0.008578849	0.58292	-999	-999	-999	-999	-999	-999	-999
0.000351713	0.9144	0.007842466	0.75252	-999	-999	-999	-999	-999	-999	-999
0.000461379	0.9144	0.007100373	0.89252	-999	-999	-999	-999	-999	-999	-999
0.000635132	0.9144	0.006361097	1.00133	-999	-999	-999	-999	-999	-999	-999
0.00087491	0.9144	0.0056227	1.08013	-999	-999	-999	-999	-999	-999	-999
0.001187647	0.9144	0.004869792	1.13068	-999	-999	-999	-999	-999	-999	-999
0.00157723	0.9144	0.004101549	1.15540	-999	-999	-999	-999	-999	-999	-999
0.00204803	0.9144	0.003317056	1.15809	-999	-999	-999	-999	-999	-999	-999
0.002600304	0.9144	0.002522366	1.14166	-999	-999	-999	-999	-999	-999	-999
0.003239242	0.9144	0.001716686	1.11068	-999	-999	-999	-999	-999	-999	-999
0.003977022	0.9144	0.000891622	1.06858	-999	-999	-999	-999	-999	-999	-999
0.004832087	0.9144	3.40596E-05	1.01684	-999	-999	-999	-999	-999	-999	-999
0.005791803	0.9144	-0.000836051	0.95968	-999	-999	-999	-999	-999	-999	-999
0.006861851	0.9144	-0.001717656	0.90085	-999	-999	-999	-999	-999	-999	-999
0.008016141	0.9144	-0.002588784	0.84273	-999	-999	-999	-999	-999	-999	-999
0.009201807	0.9144	-0.003416702	0.78776	-999	-999	-999	-999	-999	-999	-999
0.010413892	0.9144	-0.004205433	0.73699	-999	-999	-999	-999	-999	-999	-999
0.011648359	0.9144	-0.004958654	0.69037	-999	-999	-999	-999	-999	-999	-999
0.012901547	0.9144	-0.005680299	0.64753	-999	-999	-999	-999	-999	-999	-999
0.01417068	0.9144	-0.006373518	0.60809	-999	-999	-999	-999	-999	-999	-999
0.0154538	0.9144	-0.007040492	0.57178	-999	-999	-999	-999	-999	-999	-999
0.016749278	0.9144	-0.007683134	0.53840	-999	-999	-999	-999	-999	-999	-999
0.01805546	0.9144	-0.008303729	0.50773	-999	-999	-999	-999	-999	-999	-999
0.019371074	0.9144	-0.00890407	0.47945	-999	-999	-999	-999	-999	-999	-999
0.020695137	0.9144	-0.009485541	0.45331	-999	-999	-999	-999	-999	-999	-999
0.022026911	0.9144	-0.010049129	0.42887	-999	-999	-999	-999	-999	-999	-999
0.023365577	0.9144	-0.010596143	0.40577	-999	-999	-999	-999	-999	-999	-999
0.024710464	0.9144	-0.011127677	0.38399	-999	-999	-999	-999	-999	-999	-999
0.02606095	0.9144	-0.011644824	0.36360	-999	-999	-999	-999	-999	-999	-999
0.027416605	0.9144	-0.012148261	0.34448	-999	-999	-999	-999	-999	-999	-999
0.028777032	0.9144	-0.012638658	0.32656	-999	-999	-999	-999	-999	-999	-999
0.030141857	0.9144	-0.013116681	0.30984	-999	-999	-999	-999	-999	-999	-999
0.031510728	0.9144	-0.013582988	0.29397	-999	-999	-999	-999	-999	-999	-999
0.0328833	0.9144	-0.014038289	0.27881	-999	-999	-999	-999	-999	-999	-999
0.034259322	0.9144	-0.014483052	0.26439	-999	-999	-999	-999	-999	-999	-999
0.035638567	0.9144	-0.014917719	0.25078	-999	-999	-999	-999	-999	-999	-999
0.037020834	0.9144	-0.015342677	0.23799	-999	-999	-999	-999	-999	-999	-999
0.038405942	0.9144	-0.015758283	0.22588	-999	-999	-999	-999	-999	-999	-999
0.039793677	0.9144	-0.016165027	0.21443	-999	-999	-999	-999	-999	-999	-999
0.041183873	0.9144	-0.016563282	0.20356	-999	-999	-999	-999	-999	-999	-999
0.042576381	0.9144	-0.016953375	0.19311	-999	-999	-999	-999	-999	-999	-999
0.04397108	0.9144	-0.017335565	0.18307	-999	-999	-999	-999	-999	-999	-999
0.04536785	0.9144	-0.01771011	0.17354	-999	-999	-999	-999	-999	-999	-999
0.046766591	0.9144	-0.018077228	0.16457	-999	-999	-999	-999	-999	-999	-999
0.048167184	0.9144	-0.018437216	0.15593	-999	-999	-999	-999	-999	-999	-999
0.049569523	0.9144	-0.018790341	0.14753	-999	-999	-999	-999	-999	-999	-999
0.050973503	0.9144	-0.019136881	0.13956	-999	-999	-999	-999	-999	-999	-999
0.052379071	0.9144	-0.019476929	0.13189	-999	-999	-999	-999	-999	-999	-999
0.053786131	0.9144	-0.019810745	0.12447	-999	-999	-999	-999	-999	-999	-999
0.055194628	0.9144	-0.020138446	0.11748	-999	-999	-999	-999	-999	-999	-999
0.056604489	0.9144	-0.020460228	0.11076	-999	-999	-999	-999	-999	-999	-999
0.058015647	0.9144	-0.020776272	0.10428	-999	-999	-999	-999	-999	-999	-999
0.059428048	0.9144	-0.021086717	0.09815	-999	-999	-999	-999	-999	-999	-999
0.060841622	0.9144	-0.021391772	0.09220	-999	-999	-999	-999	-999	-999	-999
0.062256323	0.9144	-0.02169156	0.08642	-999	-999	-999	-999	-999	-999	-999
0.06367211	0.9144	-0.021986176	0.08090	-999	-999	-999	-999	-999	-999	-999
0.06508894	0.9144	-0.022275735	0.07559	-999	-999	-999	-999	-999	-999	-999
0.066506766	0.9144	-0.022560379	0.07052	-999	-999	-999	-999	-999	-999	-999
0.067925546	0.9144	-0.022840227	0.06564	-999	-999	-999	-999	-999	-999	-999
0.06934524	0.9144	-0.023115399	0.06093	-999	-999	-999	-999	-999	-999	-999
0.070765812	0.9144	-0.023386008	0.05639	-999	-999	-999	-999	-999	-999	-999
0.072187225	0.9144	-0.023652159	0.05200	-999	-999	-999	-999	-999	-999	-999
0.073609447	0.9144	-0.023913949	0.04777	-999	-999	-999	-999	-999	-999	-999
0.07503245	0.9144	-0.024171465	0.04369	-999	-999	-999	-999	-999	-999	-999
0.076456205	0.9144	-0.02442479	0.03976	-999	-999	-999	-999	-999	-999	-999
0.077880684	0.9144	-0.024674011	0.03597	-999	-999	-999	-999	-999	-999	-999
0.079305862	0.9144	-0.024919208	0.03232	-999	-999	-999	-999	-999	-999	-999
0.080731715	0.9144	-0.025160441	0.02882	-999	-999	-999	-999	-999	-999	-999
0.082158212	0.9144	-0.025397841	0.02544	-999	-999	-999	-999	-999	-999	-999
0.083585334	0.9144	-0.025631454	0.02216	-999	-999	-999	-999	-999	-999	-999
0.085013051	0.9144	-0.025861397	0.01901	-999	-999	-999	-999	-999	-999	-999
0.086441354	0.9144	-0.026087678	0.01590	-999	-999	-999	-999	-999	-999	-999
0.087870227	0.9144	-0.026310311	0.01288	-999	-999	-999	-999	-999	-999	-999
0.089371112	0.9144	-0.026540398	0.00993	-999	-999	-999	-999	-999	-999	-999
0.090947667	0.9144	-0.026777867	0.00691	-999	-999	-999	-999	-999	-999	-999
0.092603713	0.9144	-0.027022769	0.00390	-999	-999	-999	-999	-999	-999	-999
0.094343257	0.9144	-0.027275169	0.00083	-999	-999	-999	-999	-999	-999	-999
0.096170509	0.9144	-0.027535098	-0.00231	-999	-999	-999	-999	-999	-999	-999
0.098089905	0.9144	-0.027802476	-0.00544	-999	-999	-999	-999	-999	-999	-999
0.100106109	0.9144	-0.028077139	-0.00853	-999	-999	-999	-999	-999	-999	-999
0.102223976	0.9144	-0.028359198	-0.01161	-999	-999	-999	-999	-999	-999	-999
0.104448659	0.9144	-0.028648359	-0.01467	-999	-999	-999	-999	-999	-999	-999
0.106785541	0.9144	-0.028944449	-0.01763	-999	-999	-999	-999	-999	-999	-999
0.109240268	0.9144	-0.029247347	-0.02055	-999	-999	-999	-999	-999	-999	-999
0.111818777	0.9144	-0.029556797	-0.02345	-999	-999	-999	-999	-999	-999	-999
0.114375707	0.9144	-0.029855039	-0.02620	-999	-999	-999	-999	-999	-999	-999
0.116933585	0.9144	-0.030145031	-0.02874	-999	-999	-999	-999	-999	-999	-999
0.119492363	0.9144	-0.030426984	-0.03109	-999	-999	-999	-999	-999	-999	-999
0.122051991	0.9144	-0.030701104	-0.03328	-999	-999	-999	-999	-999	-999	-999
0.124612423	0.9144	-0.030967615	-0.03532	-999	-999	-999	-999	-999	-999	-999
0.127173618	0.9144	-0.031226693	-0.03724	-999	-999	-999	-999	-999	-999	-999
0.129735538	0.9144	-0.031478502	-0.03902	-999	-999	-999	-999	-999	-999	-999
0.132298154	0.9144	-0.031723117	-0.04063	-999	-999	-999	-999	-999	-999	-999
0.134861426	0.9144	-0.031960772	-0.04209	-999	-999	-999	-999	-999	-999	-999
0.137425316	0.9144	-0.032191657	-0.04345	-999	-999	-999	-999	-999	-999	-999
0.13998979	0.9144	-0.032415958	-0.04471	-999	-999	-999	-999	-999	-999	-999
0.14255482	0.9144	-0.032633817	-0.04586	-999	-999	-999	-999	-999	-999	-999
0.14512039	0.9144	-0.032845224	-0.04689	-999	-999	-999	-999	-999	-999	-999
0.147686464	0.9144	-0.033050414	-0.04781	-999	-999	-999	-999	-999	-999	-999
0.150253013	0.9144	-0.033249572	-0.04866	-999	-999	-999	-999	-999	-999	-999
0.152820012	0.9144	-0.033442851	-0.04941	-999	-999	-999	-999	-999	-999	-999
0.155387453	0.9144	-0.033630173	-0.05005	-999	-999	-999	-999	-999	-999	-999
0.157955299	0.9144	-0.033811842	-0.05062	-999	-999	-999	-999	-999	-999	-999
0.16052353	0.9144	-0.033987996	-0.05115	-999	-999	-999	-999	-999	-999	-999
0.163092138	0.9144	-0.034158563	-0.05159	-999	-999	-999	-999	-999	-999	-999
0.165661096	0.9144	-0.034323788	-0.05195	-999	-999	-999	-999	-999	-999	-999
0.16823038	0.9144	-0.03448385	-0.05224	-999	-999	-999	-999	-999	-999	-999
0.170799987	0.9144	-0.034638631	-0.05246	-999	-999	-999	-999	-999	-999	-999
0.17336989	0.9144	-0.034788423	-0.05260	-999	-999	-999	-999	-999	-999	-999
0.175940076	0.9144	-0.034933291	-0.05268	-999	-999	-999	-999	-999	-999	-999
0.178510536	0.9144	-0.0350732	-0.05267	-999	-999	-999	-999	-999	-999	-999
0.181081246	0.9144	-0.035208442	-0.05261	-999	-999	-999	-999	-999	-999	-999
0.183652202	0.9144	-0.035338925	-0.05251	-999	-999	-999	-999	-999	-999	-999
0.186223385	0.9144	-0.035464864	-0.05236	-999	-999	-999	-999	-999	-999	-999
0.188794784	0.9144	-0.035586306	-0.05216	-999	-999	-999	-999	-999	-999	-999
0.19136639	0.9144	-0.03570328	-0.05191	-999	-999	-999	-999	-999	-999	-999